Sconfig 0.00000 tap: on snoop: rts? on errs? on
Sconfig 0.00000 salvage: on !bd replies? on
Sconfig 0.00000 grat error: on grat reply: on
Sconfig 0.00000 $reply for props: on ring 0 search: on
Sconfig 0.00000 using MOBICACHE
s 1.000000000 _0_ AGT  --- 0 cbr 500 [0 0 0 0] ------- [0:0 3:0 32 0] [0] 0 0
r 1.000000000 _0_ RTR  --- 0 cbr 500 [0 0 0 0] ------- [0:0 3:0 32 0] [0] 0 0
s 1.000000000 _1_ AGT  --- 2 cbr 500 [0 0 0 0] ------- [1:0 3:0 32 0] [0] 0 0
r 1.000000000 _1_ RTR  --- 2 cbr 500 [0 0 0 0] ------- [1:0 3:0 32 0] [0] 0 0
s 1.000000000 _2_ AGT  --- 4 cbr 500 [0 0 0 0] ------- [2:0 3:0 32 0] [0] 0 0
r 1.000000000 _2_ RTR  --- 4 cbr 500 [0 0 0 0] ------- [2:0 3:0 32 0] [0] 0 0
s 1.000834299 _0_ RTR  --- 1 DSR 32 [0 0 0 0] ------- [0:255 3:255 32 0] 1 [1 1] [0 1 0 0->0] [0 0 0 0->0]
s 1.001349299 _0_ MAC  --- 1 DSR 90 [0 ffffffff 0 800] ------- [0:255 3:255 32 0] 1 [1 1] [0 1 0 0->0] [0 0 0 0->0]
r 1.002069632 _3_ MAC  --- 1 DSR 32 [0 ffffffff 0 800] ------- [0:255 3:255 32 0] 1 [1 1] [0 1 0 0->0] [0 0 0 0->0]
r 1.002069632 _2_ MAC  --- 1 DSR 32 [0 ffffffff 0 800] ------- [0:255 3:255 32 0] 1 [1 1] [0 1 0 0->0] [0 0 0 0->0]
r 1.002069770 _1_ MAC  --- 1 DSR 32 [0 ffffffff 0 800] ------- [0:255 3:255 32 0] 1 [1 1] [0 1 0 0->0] [0 0 0 0->0]
r 1.002094632 _3_ RTR  --- 1 DSR 32 [0 ffffffff 0 800] ------- [0:255 3:255 32 0] 1 [1 1] [0 1 0 0->0] [0 0 0 0->0]
r 1.002094632 _2_ RTR  --- 1 DSR 32 [0 ffffffff 0 800] ------- [0:255 3:255 32 0] 1 [1 1] [0 1 0 0->0] [0 0 0 0->0]
r 1.002094770 _1_ RTR  --- 1 DSR 32 [0 ffffffff 0 800] ------- [0:255 3:255 32 0] 1 [1 1] [0 1 0 0->0] [0 0 0 0->0]
s 1.003322144 _1_ RTR  --- 3 DSR 32 [0 0 0 0] ------- [1:255 3:255 32 0] 1 [1 1] [0 1 0 0->0] [0 0 0 0->0]
s 1.003557144 _1_ MAC  --- 3 DSR 90 [0 ffffffff 1 800] ------- [1:255 3:255 32 0] 1 [1 1] [0 1 0 0->0] [0 0 0 0->0]
s 1.004000000 _0_ AGT  --- 7 cbr 500 [0 0 0 0] ------- [0:0 3:0 32 0] [1] 0 0
r 1.004000000 _0_ RTR  --- 7 cbr 500 [0 0 0 0] ------- [0:0 3:0 32 0] [1] 0 0
s 1.004000000 _1_ AGT  --- 9 cbr 500 [0 0 0 0] ------- [1:0 3:0 32 0] [1] 0 0
r 1.004000000 _1_ RTR  --- 9 cbr 500 [0 0 0 0] ------- [1:0 3:0 32 0] [1] 0 0
s 1.004000000 _2_ AGT  --- 11 cbr 500 [0 0 0 0] ------- [2:0 3:0 32 0] [1] 0 0
r 1.004000000 _2_ RTR  --- 11 cbr 500 [0 0 0 0] ------- [2:0 3:0 32 0] [1] 0 0
r 1.004277478 _3_ MAC  --- 3 DSR 32 [0 ffffffff 1 800] ------- [1:255 3:255 32 0] 1 [1 1] [0 1 0 0->0] [0 0 0 0->0]
r 1.004277478 _2_ MAC  --- 3 DSR 32 [0 ffffffff 1 800] ------- [1:255 3:255 32 0] 1 [1 1] [0 1 0 0->0] [0 0 0 0->0]
r 1.004277616 _0_ MAC  --- 3 DSR 32 [0 ffffffff 1 800] ------- [1:255 3:255 32 0] 1 [1 1] [0 1 0 0->0] [0 0 0 0->0]
r 1.004302478 _3_ RTR  --- 3 DSR 32 [0 ffffffff 1 800] ------- [1:255 3:255 32 0] 1 [1 1] [0 1 0 0->0] [0 0 0 0->0]
r 1.004302478 _2_ RTR  --- 3 DSR 32 [0 ffffffff 1 800] ------- [1:255 3:255 32 0] 1 [1 1] [0 1 0 0->0] [0 0 0 0->0]
r 1.004302616 _0_ RTR  --- 3 DSR 32 [0 ffffffff 1 800] ------- [1:255 3:255 32 0] 1 [1 1] [0 1 0 0->0] [0 0 0 0->0]
s 1.005747105 _3_ RTR  --- 6 DSR 44 [0 0 0 0] ------- [3:255 0:255 254 0] 2 [0 1] [1 1 2 0->3] [0 0 0 0->0]
s 1.005942105 _3_ MAC  --- 0 ARP 86 [0 ffffffff 3 806] ------- [REQUEST 3/3 0/0]
r 1.006630439 _1_ MAC  --- 0 ARP 28 [0 ffffffff 3 806] ------- [REQUEST 3/3 0/0]
r 1.006630439 _0_ MAC  --- 0 ARP 28 [0 ffffffff 3 806] ------- [REQUEST 3/3 0/0]
r 1.006630577 _2_ MAC  --- 0 ARP 28 [0 ffffffff 3 806] ------- [REQUEST 3/3 0/0]
s 1.006956898 _2_ RTR  --- 5 DSR 32 [0 0 0 0] ------- [2:255 3:255 32 0] 1 [1 1] [0 1 0 0->0] [0 0 0 0->0]
s 1.007005439 _0_ MAC  --- 0 RTS 44 [52e 3 0 0] 
r 1.007357772 _3_ MAC  --- 0 RTS 44 [52e 3 0 0] 
s 1.007367772 _3_ MAC  --- 0 CTS 38 [3f4 0 0 0] 
s 1.007519826 _3_ RTR  --- 13 DSR 44 [0 0 0 0] ------- [3:255 1:255 254 1] 2 [0 1] [1 1 2 1->3] [0 0 0 0->0]
r 1.007672105 _0_ MAC  --- 0 CTS 38 [3f4 0 0 0] 
s 1.007682105 _0_ MAC  --- 0 ARP 86 [13a 3 0 806] ------- [REPLY 0/0 3/3]
s 1.008000000 _0_ AGT  --- 14 cbr 500 [0 0 0 0] ------- [0:0 3:0 32 0] [2] 0 0
r 1.008000000 _0_ RTR  --- 14 cbr 500 [0 0 0 0] ------- [0:0 3:0 32 0] [2] 0 0
s 1.008000000 _1_ AGT  --- 16 cbr 500 [0 0 0 0] ------- [1:0 3:0 32 0] [2] 0 0
r 1.008000000 _1_ RTR  --- 16 cbr 500 [0 0 0 0] ------- [1:0 3:0 32 0] [2] 0 0
s 1.008000000 _2_ AGT  --- 18 cbr 500 [0 0 0 0] ------- [2:0 3:0 32 0] [2] 0 0
r 1.008000000 _2_ RTR  --- 18 cbr 500 [0 0 0 0] ------- [2:0 3:0 32 0] [2] 0 0
r 1.008370439 _3_ MAC  --- 0 ARP 28 [13a 3 0 806] ------- [REPLY 0/0 3/3]
s 1.008380439 _3_ MAC  --- 0 ACK 38 [0 0 0 0] 
r 1.008684772 _0_ MAC  --- 0 ACK 38 [0 0 0 0] 
s 1.008774439 _3_ MAC  --- 0 ARP 86 [0 ffffffff 3 806] ------- [REQUEST 3/3 0/1]
r 1.009462772 _1_ MAC  --- 0 ARP 28 [0 ffffffff 3 806] ------- [REQUEST 3/3 0/1]
r 1.009462772 _0_ MAC  --- 0 ARP 28 [0 ffffffff 3 806] ------- [REQUEST 3/3 0/1]
r 1.009462910 _2_ MAC  --- 0 ARP 28 [0 ffffffff 3 806] ------- [REQUEST 3/3 0/1]
s 1.009677772 _1_ MAC  --- 0 RTS 44 [52e 3 1 0] 
r 1.010030105 _3_ MAC  --- 0 RTS 44 [52e 3 1 0] 
s 1.010040105 _3_ MAC  --- 0 CTS 38 [3f4 1 0 0] 
r 1.010344439 _1_ MAC  --- 0 CTS 38 [3f4 1 0 0] 
s 1.010354439 _1_ MAC  --- 0 ARP 86 [13a 3 1 806] ------- [REPLY 1/1 3/3]
r 1.011042772 _3_ MAC  --- 0 ARP 28 [13a 3 1 806] ------- [REPLY 1/1 3/3]
s 1.011052772 _3_ MAC  --- 0 ACK 38 [0 1 0 0] 
r 1.011357105 _1_ MAC  --- 0 ACK 38 [0 1 0 0] 
s 1.011566772 _3_ MAC  --- 0 RTS 44 [5ae 0 3 0] 
r 1.011919105 _0_ MAC  --- 0 RTS 44 [5ae 0 3 0] 
s 1.011929105 _0_ MAC  --- 0 CTS 38 [474 3 0 0] 
s 1.012000000 _0_ AGT  --- 20 cbr 500 [0 0 0 0] ------- [0:0 3:0 32 0] [3] 0 0
r 1.012000000 _0_ RTR  --- 20 cbr 500 [0 0 0 0] ------- [0:0 3:0 32 0] [3] 0 0
s 1.012000000 _1_ AGT  --- 22 cbr 500 [0 0 0 0] ------- [1:0 3:0 32 0] [3] 0 0
r 1.012000000 _1_ RTR  --- 22 cbr 500 [0 0 0 0] ------- [1:0 3:0 32 0] [3] 0 0
s 1.012000000 _2_ AGT  --- 24 cbr 500 [0 0 0 0] ------- [2:0 3:0 32 0] [3] 0 0
r 1.012000000 _2_ RTR  --- 24 cbr 500 [0 0 0 0] ------- [2:0 3:0 32 0] [3] 0 0
r 1.012233439 _3_ MAC  --- 0 CTS 38 [474 3 0 0] 
s 1.012243439 _3_ MAC  --- 6 DSR 102 [13a 0 3 800] ------- [3:255 0:255 254 0] 2 [0 1] [1 1 2 0->3] [0 0 0 0->0]
r 1.013059772 _0_ MAC  --- 6 DSR 44 [13a 0 3 800] ------- [3:255 0:255 254 0] 2 [0 1] [1 1 2 0->3] [0 0 0 0->0]
s 1.013069772 _0_ MAC  --- 0 ACK 38 [0 3 0 0] 
r 1.013084772 _0_ RTR  --- 6 DSR 44 [13a 0 3 800] ------- [3:255 0:255 254 0] 2 [0 1] [1 1 2 0->3] [0 0 0 0->0]
SFESTs 1.013084772 _0_ 0 [0 -> 3] 1(1) to 3 [0 |3 ]
SFESTs 1.013084772 _0_ 7 [0 -> 3] 1(1) to 3 [0 |3 ]
SFESTs 1.013084772 _0_ 14 [0 -> 3] 1(1) to 3 [0 |3 ]
SFs 1.013084772 _0_ 20 [0 -> 3] 1(0) to 3 
s 1.013084772 _0_ RTR  --- 0 cbr 536 [0 0 0 0] ------- [0:0 3:0 32 3] [0] 0 0
r 1.013374105 _3_ MAC  --- 0 ACK 38 [0 3 0 0] 
s 1.013424105 _3_ MAC  --- 0 RTS 44 [5ae 1 3 0] 
r 1.013776439 _1_ MAC  --- 0 RTS 44 [5ae 1 3 0] 
s 1.013786439 _1_ MAC  --- 0 CTS 38 [474 3 0 0] 
r 1.014090772 _3_ MAC  --- 0 CTS 38 [474 3 0 0] 
s 1.014100772 _3_ MAC  --- 13 DSR 102 [13a 1 3 800] ------- [3:255 1:255 254 1] 2 [0 1] [1 1 2 1->3] [0 0 0 0->0]
r 1.014917105 _1_ MAC  --- 13 DSR 44 [13a 1 3 800] ------- [3:255 1:255 254 1] 2 [0 1] [1 1 2 1->3] [0 0 0 0->0]
s 1.014927105 _1_ MAC  --- 0 ACK 38 [0 3 0 0] 
r 1.014942105 _1_ RTR  --- 13 DSR 44 [13a 1 3 800] ------- [3:255 1:255 254 1] 2 [0 1] [1 1 2 1->3] [0 0 0 0->0]
SFESTs 1.014942105 _1_ 2 [1 -> 3] 1(1) to 3 [1 |3 ]
SFESTs 1.014942105 _1_ 9 [1 -> 3] 1(1) to 3 [1 |3 ]
SFESTs 1.014942105 _1_ 16 [1 -> 3] 1(1) to 3 [1 |3 ]
SFs 1.014942105 _1_ 22 [1 -> 3] 1(0) to 3 
s 1.014942105 _1_ RTR  --- 2 cbr 536 [0 0 0 0] ------- [1:0 3:0 32 3] [0] 0 0
r 1.015231439 _3_ MAC  --- 0 ACK 38 [0 3 0 0] 
s 1.015381439 _2_ MAC  --- 5 DSR 90 [0 ffffffff 2 800] ------- [2:255 3:255 32 0] 1 [1 1] [0 1 0 0->0] [0 0 0 0->0]
s 1.016000000 _0_ AGT  --- 34 cbr 500 [0 0 0 0] ------- [0:0 3:0 32 0] [4] 0 0
r 1.016000000 _0_ RTR  --- 34 cbr 500 [0 0 0 0] ------- [0:0 3:0 32 0] [4] 0 0
SFs 1.016000000 _0_ 34 [0 -> 3] 1(0) to 3 
s 1.016000000 _1_ AGT  --- 35 cbr 500 [0 0 0 0] ------- [1:0 3:0 32 0] [4] 0 0
r 1.016000000 _1_ RTR  --- 35 cbr 500 [0 0 0 0] ------- [1:0 3:0 32 0] [4] 0 0
SFs 1.016000000 _1_ 35 [1 -> 3] 1(0) to 3 
s 1.016000000 _2_ AGT  --- 36 cbr 500 [0 0 0 0] ------- [2:0 3:0 32 0] [4] 0 0
r 1.016000000 _2_ RTR  --- 36 cbr 500 [0 0 0 0] ------- [2:0 3:0 32 0] [4] 0 0
SFESTs 1.016000000 _2_ 36 [2 -> 3] 1(1) to 3 [2 |3 ]
s 1.016000000 _0_ RTR  --- 34 cbr 520 [0 0 0 0] ------- [0:0 3:0 32 3] [4] 0 0
s 1.016000000 _1_ RTR  --- 35 cbr 520 [0 0 0 0] ------- [1:0 3:0 32 3] [4] 0 0
s 1.016000000 _2_ RTR  --- 36 cbr 536 [0 0 0 0] ------- [2:0 3:0 32 3] [4] 0 0
r 1.016101772 _0_ MAC  --- 5 DSR 32 [0 ffffffff 2 800] ------- [2:255 3:255 32 0] 1 [1 1] [0 1 0 0->0] [0 0 0 0->0]
r 1.016101772 _1_ MAC  --- 5 DSR 32 [0 ffffffff 2 800] ------- [2:255 3:255 32 0] 1 [1 1] [0 1 0 0->0] [0 0 0 0->0]
r 1.016101910 _3_ MAC  --- 5 DSR 32 [0 ffffffff 2 800] ------- [2:255 3:255 32 0] 1 [1 1] [0 1 0 0->0] [0 0 0 0->0]
r 1.016126772 _0_ RTR  --- 5 DSR 32 [0 ffffffff 2 800] ------- [2:255 3:255 32 0] 1 [1 1] [0 1 0 0->0] [0 0 0 0->0]
r 1.016126772 _1_ RTR  --- 5 DSR 32 [0 ffffffff 2 800] ------- [2:255 3:255 32 0] 1 [1 1] [0 1 0 0->0] [0 0 0 0->0]
s 1.016126772 _0_ RTR  --- 37 DSR 48 [0 0 0 0] ------- [0:255 2:255 255 2] 2 [0 1] [1 1 3 2->3] [0 0 0 0->0]
s 1.016126772 _1_ RTR  --- 38 DSR 48 [0 0 0 0] ------- [1:255 2:255 255 2] 2 [0 1] [1 1 3 2->3] [0 0 0 0->0]
r 1.016126910 _3_ RTR  --- 5 DSR 32 [0 ffffffff 2 800] ------- [2:255 3:255 32 0] 1 [1 1] [0 1 0 0->0] [0 0 0 0->0]
s 1.016231772 _0_ MAC  --- 0 RTS 44 [150e 3 0 0] 
r 1.016584105 _3_ MAC  --- 0 RTS 44 [150e 3 0 0] 
s 1.016594105 _3_ MAC  --- 0 CTS 38 [13d4 0 0 0] 
r 1.016898439 _0_ MAC  --- 0 CTS 38 [13d4 0 0 0] 
s 1.016908439 _0_ MAC  --- 0 cbr 594 [13a 3 0 800] ------- [0:0 3:0 32 3] [0] 0 0
s 1.017318681 _3_ RTR  --- 39 DSR 44 [0 0 0 0] ------- [3:255 2:255 254 2] 2 [0 1] [1 1 2 2->3] [0 0 0 0->0]
s 1.020000000 _0_ AGT  --- 40 cbr 500 [0 0 0 0] ------- [0:0 3:0 32 0] [5] 0 0
r 1.020000000 _0_ RTR  --- 40 cbr 500 [0 0 0 0] ------- [0:0 3:0 32 0] [5] 0 0
SFs 1.020000000 _0_ 40 [0 -> 3] 1(0) to 3 
s 1.020000000 _1_ AGT  --- 41 cbr 500 [0 0 0 0] ------- [1:0 3:0 32 0] [5] 0 0
r 1.020000000 _1_ RTR  --- 41 cbr 500 [0 0 0 0] ------- [1:0 3:0 32 0] [5] 0 0
SFs 1.020000000 _1_ 41 [1 -> 3] 1(0) to 3 
s 1.020000000 _2_ AGT  --- 42 cbr 500 [0 0 0 0] ------- [2:0 3:0 32 0] [5] 0 0
r 1.020000000 _2_ RTR  --- 42 cbr 500 [0 0 0 0] ------- [2:0 3:0 32 0] [5] 0 0
SFESTs 1.020000000 _2_ 42 [2 -> 3] 1(1) to 3 [2 |3 ]
s 1.020000000 _0_ RTR  --- 40 cbr 520 [0 0 0 0] ------- [0:0 3:0 32 3] [5] 0 0
s 1.020000000 _1_ RTR  --- 41 cbr 520 [0 0 0 0] ------- [1:0 3:0 32 3] [5] 0 0
s 1.020000000 _2_ RTR  --- 42 cbr 536 [0 0 0 0] ------- [2:0 3:0 32 3] [5] 0 0
r 1.021660772 _3_ MAC  --- 0 cbr 536 [13a 3 0 800] ------- [0:0 3:0 32 3] [0] 1 0
s 1.021670772 _3_ MAC  --- 0 ACK 38 [0 0 0 0] 
r 1.021685772 _3_ RTR  --- 0 cbr 536 [13a 3 0 800] ------- [0:0 3:0 32 3] [0] 1 0
r 1.021685772 _3_ AGT  --- 0 cbr 500 [13a 3 0 800] ------- [0:0 3:0 32 3] [0] 1 0
r 1.021975105 _0_ MAC  --- 0 ACK 38 [0 0 0 0] 
s 1.022085105 _0_ MAC  --- 0 RTS 44 [148e 3 0 0] 
r 1.022437439 _3_ MAC  --- 0 RTS 44 [148e 3 0 0] 
s 1.022447439 _3_ MAC  --- 0 CTS 38 [1354 0 0 0] 
r 1.022751772 _0_ MAC  --- 0 CTS 38 [1354 0 0 0] 
s 1.022761772 _0_ MAC  --- 34 cbr 578 [13a 3 0 800] ------- [0:0 3:0 32 3] [4] 0 0
s 1.024000000 _0_ AGT  --- 43 cbr 500 [0 0 0 0] ------- [0:0 3:0 32 0] [6] 0 0
r 1.024000000 _0_ RTR  --- 43 cbr 500 [0 0 0 0] ------- [0:0 3:0 32 0] [6] 0 0
SFs 1.024000000 _0_ 43 [0 -> 3] 1(0) to 3 
s 1.024000000 _1_ AGT  --- 44 cbr 500 [0 0 0 0] ------- [1:0 3:0 32 0] [6] 0 0
r 1.024000000 _1_ RTR  --- 44 cbr 500 [0 0 0 0] ------- [1:0 3:0 32 0] [6] 0 0
SFs 1.024000000 _1_ 44 [1 -> 3] 1(0) to 3 
s 1.024000000 _2_ AGT  --- 45 cbr 500 [0 0 0 0] ------- [2:0 3:0 32 0] [6] 0 0
r 1.024000000 _2_ RTR  --- 45 cbr 500 [0 0 0 0] ------- [2:0 3:0 32 0] [6] 0 0
SFESTs 1.024000000 _2_ 45 [2 -> 3] 1(1) to 3 [2 |3 ]
s 1.024000000 _0_ RTR  --- 43 cbr 520 [0 0 0 0] ------- [0:0 3:0 32 3] [6] 0 0
s 1.024000000 _1_ RTR  --- 44 cbr 520 [0 0 0 0] ------- [1:0 3:0 32 3] [6] 0 0
s 1.024000000 _2_ RTR  --- 45 cbr 536 [0 0 0 0] ------- [2:0 3:0 32 3] [6] 0 0
r 1.027386105 _3_ MAC  --- 34 cbr 520 [13a 3 0 800] ------- [0:0 3:0 32 3] [4] 1 0
s 1.027396105 _3_ MAC  --- 0 ACK 38 [0 0 0 0] 
r 1.027411105 _3_ RTR  --- 34 cbr 520 [13a 3 0 800] ------- [0:0 3:0 32 3] [4] 1 0
r 1.027411105 _3_ AGT  --- 34 cbr 500 [13a 3 0 800] ------- [0:0 3:0 32 3] [4] 1 0
r 1.027700439 _0_ MAC  --- 0 ACK 38 [0 0 0 0] 
s 1.028000000 _0_ AGT  --- 46 cbr 500 [0 0 0 0] ------- [0:0 3:0 32 0] [7] 0 0
r 1.028000000 _0_ RTR  --- 46 cbr 500 [0 0 0 0] ------- [0:0 3:0 32 0] [7] 0 0
SFs 1.028000000 _0_ 46 [0 -> 3] 1(0) to 3 
s 1.028000000 _1_ AGT  --- 47 cbr 500 [0 0 0 0] ------- [1:0 3:0 32 0] [7] 0 0
r 1.028000000 _1_ RTR  --- 47 cbr 500 [0 0 0 0] ------- [1:0 3:0 32 0] [7] 0 0
SFs 1.028000000 _1_ 47 [1 -> 3] 1(0) to 3 
s 1.028000000 _2_ AGT  --- 48 cbr 500 [0 0 0 0] ------- [2:0 3:0 32 0] [7] 0 0
r 1.028000000 _2_ RTR  --- 48 cbr 500 [0 0 0 0] ------- [2:0 3:0 32 0] [7] 0 0
SFs 1.028000000 _2_ 48 [2 -> 3] 1(0) to 3 
s 1.028000000 _0_ RTR  --- 46 cbr 520 [0 0 0 0] ------- [0:0 3:0 32 3] [7] 0 0
s 1.028000000 _1_ RTR  --- 47 cbr 520 [0 0 0 0] ------- [1:0 3:0 32 3] [7] 0 0
s 1.028000000 _2_ RTR  --- 48 cbr 520 [0 0 0 0] ------- [2:0 3:0 32 3] [7] 0 0
s 1.028010439 _0_ MAC  --- 0 ARP 86 [0 ffffffff 0 806] ------- [REQUEST 0/0 0/2]
r 1.028698772 _3_ MAC  --- 0 ARP 28 [0 ffffffff 0 806] ------- [REQUEST 0/0 0/2]
r 1.028698772 _2_ MAC  --- 0 ARP 28 [0 ffffffff 0 806] ------- [REQUEST 0/0 0/2]
r 1.028698910 _1_ MAC  --- 0 ARP 28 [0 ffffffff 0 806] ------- [REQUEST 0/0 0/2]
s 1.028768439 _0_ MAC  --- 0 RTS 44 [148e 3 0 0] 
s 1.028768772 _2_ MAC  --- 0 RTS 44 [150e 3 2 0] 
s 1.028768910 _1_ MAC  --- 0 RTS 44 [150e 3 1 0] 
D 1.028769244 _3_ MAC  COL 0 RTS 44 [148e 3 0 0] 
D 1.028769244 _3_ MAC  COL 0 RTS 44 [150e 3 2 0] 
D 1.029121244 _3_ MAC  COL 0 RTS 44 [150e 3 1 0] 
s 1.029635244 _3_ MAC  --- 0 ARP 86 [0 ffffffff 3 806] ------- [REQUEST 3/3 0/2]
r 1.030323577 _1_ MAC  --- 0 ARP 28 [0 ffffffff 3 806] ------- [REQUEST 3/3 0/2]
r 1.030323577 _0_ MAC  --- 0 ARP 28 [0 ffffffff 3 806] ------- [REQUEST 3/3 0/2]
r 1.030323715 _2_ MAC  --- 0 ARP 28 [0 ffffffff 3 806] ------- [REQUEST 3/3 0/2]
s 1.031053715 _2_ MAC  --- 0 RTS 44 [150e 3 2 0] 
r 1.031406186 _3_ MAC  --- 0 RTS 44 [150e 3 2 0] 
s 1.031416186 _3_ MAC  --- 0 CTS 38 [13d4 2 0 0] 
r 1.031720658 _2_ MAC  --- 0 CTS 38 [13d4 2 0 0] 
s 1.031730658 _2_ MAC  --- 36 cbr 594 [13a 3 2 800] ------- [2:0 3:0 32 3] [4] 0 0
s 1.032000000 _0_ AGT  --- 49 cbr 500 [0 0 0 0] ------- [0:0 3:0 32 0] [8] 0 0
r 1.032000000 _0_ RTR  --- 49 cbr 500 [0 0 0 0] ------- [0:0 3:0 32 0] [8] 0 0
SFs 1.032000000 _0_ 49 [0 -> 3] 1(0) to 3 
s 1.032000000 _1_ AGT  --- 50 cbr 500 [0 0 0 0] ------- [1:0 3:0 32 0] [8] 0 0
r 1.032000000 _1_ RTR  --- 50 cbr 500 [0 0 0 0] ------- [1:0 3:0 32 0] [8] 0 0
SFs 1.032000000 _1_ 50 [1 -> 3] 1(0) to 3 
s 1.032000000 _2_ AGT  --- 51 cbr 500 [0 0 0 0] ------- [2:0 3:0 32 0] [8] 0 0
r 1.032000000 _2_ RTR  --- 51 cbr 500 [0 0 0 0] ------- [2:0 3:0 32 0] [8] 0 0
SFs 1.032000000 _2_ 51 [2 -> 3] 1(0) to 3 
s 1.032000000 _0_ RTR  --- 49 cbr 520 [0 0 0 0] ------- [0:0 3:0 32 3] [8] 0 0
s 1.032000000 _1_ RTR  --- 50 cbr 520 [0 0 0 0] ------- [1:0 3:0 32 3] [8] 0 0
s 1.032000000 _2_ RTR  --- 51 cbr 520 [0 0 0 0] ------- [2:0 3:0 32 3] [8] 0 0
s 1.036000000 _0_ AGT  --- 52 cbr 500 [0 0 0 0] ------- [0:0 3:0 32 0] [9] 0 0
r 1.036000000 _0_ RTR  --- 52 cbr 500 [0 0 0 0] ------- [0:0 3:0 32 0] [9] 0 0
SFs 1.036000000 _0_ 52 [0 -> 3] 1(0) to 3 
s 1.036000000 _1_ AGT  --- 53 cbr 500 [0 0 0 0] ------- [1:0 3:0 32 0] [9] 0 0
r 1.036000000 _1_ RTR  --- 53 cbr 500 [0 0 0 0] ------- [1:0 3:0 32 0] [9] 0 0
SFs 1.036000000 _1_ 53 [1 -> 3] 1(0) to 3 
s 1.036000000 _2_ AGT  --- 54 cbr 500 [0 0 0 0] ------- [2:0 3:0 32 0] [9] 0 0
r 1.036000000 _2_ RTR  --- 54 cbr 500 [0 0 0 0] ------- [2:0 3:0 32 0] [9] 0 0
SFs 1.036000000 _2_ 54 [2 -> 3] 1(0) to 3 
s 1.036000000 _0_ RTR  --- 52 cbr 520 [0 0 0 0] ------- [0:0 3:0 32 3] [9] 0 0
s 1.036000000 _1_ RTR  --- 53 cbr 520 [0 0 0 0] ------- [1:0 3:0 32 3] [9] 0 0
s 1.036000000 _2_ RTR  --- 54 cbr 520 [0 0 0 0] ------- [2:0 3:0 32 3] [9] 0 0
r 1.036483129 _3_ MAC  --- 36 cbr 536 [13a 3 2 800] ------- [2:0 3:0 32 3] [4] 1 0
s 1.036493129 _3_ MAC  --- 0 ACK 38 [0 2 0 0] 
r 1.036508129 _3_ RTR  --- 36 cbr 536 [13a 3 2 800] ------- [2:0 3:0 32 3] [4] 1 0
r 1.036508129 _3_ AGT  --- 36 cbr 500 [13a 3 2 800] ------- [2:0 3:0 32 3] [4] 1 0
r 1.036797601 _2_ MAC  --- 0 ACK 38 [0 2 0 0] 
s 1.036927463 _0_ MAC  --- 0 RTS 44 [148e 3 0 0] 
r 1.037279796 _3_ MAC  --- 0 RTS 44 [148e 3 0 0] 
s 1.037289796 _3_ MAC  --- 0 CTS 38 [1354 0 0 0] 
r 1.037594129 _0_ MAC  --- 0 CTS 38 [1354 0 0 0] 
s 1.037604129 _0_ MAC  --- 40 cbr 578 [13a 3 0 800] ------- [0:0 3:0 32 3] [5] 0 0
s 1.040000000 _0_ AGT  --- 55 cbr 500 [0 0 0 0] ------- [0:0 3:0 32 0] [10] 0 0
r 1.040000000 _0_ RTR  --- 55 cbr 500 [0 0 0 0] ------- [0:0 3:0 32 0] [10] 0 0
SFs 1.040000000 _0_ 55 [0 -> 3] 1(0) to 3 
s 1.040000000 _1_ AGT  --- 56 cbr 500 [0 0 0 0] ------- [1:0 3:0 32 0] [10] 0 0
r 1.040000000 _1_ RTR  --- 56 cbr 500 [0 0 0 0] ------- [1:0 3:0 32 0] [10] 0 0
SFs 1.040000000 _1_ 56 [1 -> 3] 1(0) to 3 
s 1.040000000 _2_ AGT  --- 57 cbr 500 [0 0 0 0] ------- [2:0 3:0 32 0] [10] 0 0
r 1.040000000 _2_ RTR  --- 57 cbr 500 [0 0 0 0] ------- [2:0 3:0 32 0] [10] 0 0
SFs 1.040000000 _2_ 57 [2 -> 3] 1(0) to 3 
s 1.040000000 _0_ RTR  --- 55 cbr 520 [0 0 0 0] ------- [0:0 3:0 32 3] [10] 0 0
s 1.040000000 _1_ RTR  --- 56 cbr 520 [0 0 0 0] ------- [1:0 3:0 32 3] [10] 0 0
s 1.040000000 _2_ RTR  --- 57 cbr 520 [0 0 0 0] ------- [2:0 3:0 32 3] [10] 0 0
r 1.042228463 _3_ MAC  --- 40 cbr 520 [13a 3 0 800] ------- [0:0 3:0 32 3] [5] 1 0
s 1.042238463 _3_ MAC  --- 0 ACK 38 [0 0 0 0] 
r 1.042253463 _3_ RTR  --- 40 cbr 520 [13a 3 0 800] ------- [0:0 3:0 32 3] [5] 1 0
r 1.042253463 _3_ AGT  --- 40 cbr 500 [13a 3 0 800] ------- [0:0 3:0 32 3] [5] 1 0
r 1.042542796 _0_ MAC  --- 0 ACK 38 [0 0 0 0] 
s 1.042892796 _1_ MAC  --- 0 RTS 44 [150e 3 1 0] 
s 1.043084772 _0_ RTR  --- 7 cbr 536 [0 0 0 0] ------- [0:0 3:0 32 3] [1] 0 0
r 1.043245129 _3_ MAC  --- 0 RTS 44 [150e 3 1 0] 
s 1.043255129 _3_ MAC  --- 0 CTS 38 [13d4 1 0 0] 
r 1.043559463 _1_ MAC  --- 0 CTS 38 [13d4 1 0 0] 
s 1.043569463 _1_ MAC  --- 2 cbr 594 [13a 3 1 800] ------- [1:0 3:0 32 3] [0] 0 0
s 1.044000000 _0_ AGT  --- 58 cbr 500 [0 0 0 0] ------- [0:0 3:0 32 0] [11] 0 0
r 1.044000000 _0_ RTR  --- 58 cbr 500 [0 0 0 0] ------- [0:0 3:0 32 0] [11] 0 0
SFs 1.044000000 _0_ 58 [0 -> 3] 1(0) to 3 
s 1.044000000 _1_ AGT  --- 59 cbr 500 [0 0 0 0] ------- [1:0 3:0 32 0] [11] 0 0
r 1.044000000 _1_ RTR  --- 59 cbr 500 [0 0 0 0] ------- [1:0 3:0 32 0] [11] 0 0
SFs 1.044000000 _1_ 59 [1 -> 3] 1(0) to 3 
s 1.044000000 _2_ AGT  --- 60 cbr 500 [0 0 0 0] ------- [2:0 3:0 32 0] [11] 0 0
r 1.044000000 _2_ RTR  --- 60 cbr 500 [0 0 0 0] ------- [2:0 3:0 32 0] [11] 0 0
SFs 1.044000000 _2_ 60 [2 -> 3] 1(0) to 3 
s 1.044000000 _0_ RTR  --- 58 cbr 520 [0 0 0 0] ------- [0:0 3:0 32 3] [11] 0 0
s 1.044000000 _1_ RTR  --- 59 cbr 520 [0 0 0 0] ------- [1:0 3:0 32 3] [11] 0 0
s 1.044000000 _2_ RTR  --- 60 cbr 520 [0 0 0 0] ------- [2:0 3:0 32 3] [11] 0 0
s 1.044942105 _1_ RTR  --- 9 cbr 536 [0 0 0 0] ------- [1:0 3:0 32 3] [1] 0 0
s 1.048000000 _0_ AGT  --- 61 cbr 500 [0 0 0 0] ------- [0:0 3:0 32 0] [12] 0 0
r 1.048000000 _0_ RTR  --- 61 cbr 500 [0 0 0 0] ------- [0:0 3:0 32 0] [12] 0 0
SFs 1.048000000 _0_ 61 [0 -> 3] 1(0) to 3 
s 1.048000000 _1_ AGT  --- 62 cbr 500 [0 0 0 0] ------- [1:0 3:0 32 0] [12] 0 0
r 1.048000000 _1_ RTR  --- 62 cbr 500 [0 0 0 0] ------- [1:0 3:0 32 0] [12] 0 0
SFs 1.048000000 _1_ 62 [1 -> 3] 1(0) to 3 
s 1.048000000 _2_ AGT  --- 63 cbr 500 [0 0 0 0] ------- [2:0 3:0 32 0] [12] 0 0
r 1.048000000 _2_ RTR  --- 63 cbr 500 [0 0 0 0] ------- [2:0 3:0 32 0] [12] 0 0
SFs 1.048000000 _2_ 63 [2 -> 3] 1(0) to 3 
s 1.048000000 _0_ RTR  --- 61 cbr 520 [0 0 0 0] ------- [0:0 3:0 32 3] [12] 0 0
s 1.048000000 _1_ RTR  --- 62 cbr 520 [0 0 0 0] ------- [1:0 3:0 32 3] [12] 0 0
s 1.048000000 _2_ RTR  --- 63 cbr 520 [0 0 0 0] ------- [2:0 3:0 32 3] [12] 0 0
r 1.048321796 _3_ MAC  --- 2 cbr 536 [13a 3 1 800] ------- [1:0 3:0 32 3] [0] 1 0
s 1.048331796 _3_ MAC  --- 0 ACK 38 [0 1 0 0] 
r 1.048346796 _3_ RTR  --- 2 cbr 536 [13a 3 1 800] ------- [1:0 3:0 32 3] [0] 1 0
r 1.048346796 _3_ AGT  --- 2 cbr 500 [13a 3 1 800] ------- [1:0 3:0 32 3] [0] 1 0
r 1.048636129 _1_ MAC  --- 0 ACK 38 [0 1 0 0] 
s 1.048706129 _0_ MAC  --- 0 RTS 44 [148e 3 0 0] 
r 1.049058463 _3_ MAC  --- 0 RTS 44 [148e 3 0 0] 
s 1.049068463 _3_ MAC  --- 0 CTS 38 [1354 0 0 0] 
r 1.049372796 _0_ MAC  --- 0 CTS 38 [1354 0 0 0] 
s 1.049382796 _0_ MAC  --- 43 cbr 578 [13a 3 0 800] ------- [0:0 3:0 32 3] [6] 0 0
s 1.052000000 _0_ AGT  --- 64 cbr 500 [0 0 0 0] ------- [0:0 3:0 32 0] [13] 0 0
r 1.052000000 _0_ RTR  --- 64 cbr 500 [0 0 0 0] ------- [0:0 3:0 32 0] [13] 0 0
SFs 1.052000000 _0_ 64 [0 -> 3] 1(0) to 3 
s 1.052000000 _1_ AGT  --- 65 cbr 500 [0 0 0 0] ------- [1:0 3:0 32 0] [13] 0 0
r 1.052000000 _1_ RTR  --- 65 cbr 500 [0 0 0 0] ------- [1:0 3:0 32 0] [13] 0 0
SFs 1.052000000 _1_ 65 [1 -> 3] 1(0) to 3 
s 1.052000000 _2_ AGT  --- 66 cbr 500 [0 0 0 0] ------- [2:0 3:0 32 0] [13] 0 0
r 1.052000000 _2_ RTR  --- 66 cbr 500 [0 0 0 0] ------- [2:0 3:0 32 0] [13] 0 0
SFs 1.052000000 _2_ 66 [2 -> 3] 1(0) to 3 
s 1.052000000 _0_ RTR  --- 64 cbr 520 [0 0 0 0] ------- [0:0 3:0 32 3] [13] 0 0
s 1.052000000 _1_ RTR  --- 65 cbr 520 [0 0 0 0] ------- [1:0 3:0 32 3] [13] 0 0
s 1.052000000 _2_ RTR  --- 66 cbr 520 [0 0 0 0] ------- [2:0 3:0 32 3] [13] 0 0
r 1.054007129 _3_ MAC  --- 43 cbr 520 [13a 3 0 800] ------- [0:0 3:0 32 3] [6] 1 0
s 1.054017129 _3_ MAC  --- 0 ACK 38 [0 0 0 0] 
r 1.054032129 _3_ RTR  --- 43 cbr 520 [13a 3 0 800] ------- [0:0 3:0 32 3] [6] 1 0
r 1.054032129 _3_ AGT  --- 43 cbr 500 [13a 3 0 800] ------- [0:0 3:0 32 3] [6] 1 0
r 1.054321463 _0_ MAC  --- 0 ACK 38 [0 0 0 0] 
s 1.054451601 _2_ MAC  --- 0 RTS 44 [150e 3 2 0] 
r 1.054804072 _3_ MAC  --- 0 RTS 44 [150e 3 2 0] 
s 1.054814072 _3_ MAC  --- 0 CTS 38 [13d4 2 0 0] 
r 1.055118543 _2_ MAC  --- 0 CTS 38 [13d4 2 0 0] 
s 1.055128543 _2_ MAC  --- 42 cbr 594 [13a 3 2 800] ------- [2:0 3:0 32 3] [5] 0 0
s 1.056000000 _0_ AGT  --- 67 cbr 500 [0 0 0 0] ------- [0:0 3:0 32 0] [14] 0 0
r 1.056000000 _0_ RTR  --- 67 cbr 500 [0 0 0 0] ------- [0:0 3:0 32 0] [14] 0 0
SFs 1.056000000 _0_ 67 [0 -> 3] 1(0) to 3 
s 1.056000000 _1_ AGT  --- 68 cbr 500 [0 0 0 0] ------- [1:0 3:0 32 0] [14] 0 0
r 1.056000000 _1_ RTR  --- 68 cbr 500 [0 0 0 0] ------- [1:0 3:0 32 0] [14] 0 0
SFs 1.056000000 _1_ 68 [1 -> 3] 1(0) to 3 
s 1.056000000 _2_ AGT  --- 69 cbr 500 [0 0 0 0] ------- [2:0 3:0 32 0] [14] 0 0
r 1.056000000 _2_ RTR  --- 69 cbr 500 [0 0 0 0] ------- [2:0 3:0 32 0] [14] 0 0
SFs 1.056000000 _2_ 69 [2 -> 3] 1(0) to 3 
s 1.056000000 _0_ RTR  --- 67 cbr 520 [0 0 0 0] ------- [0:0 3:0 32 3] [14] 0 0
s 1.056000000 _1_ RTR  --- 68 cbr 520 [0 0 0 0] ------- [1:0 3:0 32 3] [14] 0 0
s 1.056000000 _2_ RTR  --- 69 cbr 520 [0 0 0 0] ------- [2:0 3:0 32 3] [14] 0 0
SFs 1.058152039 _2_ 4 [2 -> 3] 1(0) to 3 
SFs 1.058152039 _2_ 11 [2 -> 3] 1(0) to 3 
SFs 1.058152039 _2_ 18 [2 -> 3] 1(0) to 3 
SFs 1.058152039 _2_ 24 [2 -> 3] 1(0) to 3 
s 1.058152039 _2_ RTR  --- 4 cbr 520 [0 0 0 0] ------- [2:0 3:0 32 3] [0] 0 0
s 1.058152039 _2_ RTR  --- 11 cbr 520 [0 0 0 0] ------- [2:0 3:0 32 3] [1] 0 0
s 1.058152039 _2_ RTR  --- 18 cbr 520 [0 0 0 0] ------- [2:0 3:0 32 3] [2] 0 0
s 1.058152039 _2_ RTR  --- 24 cbr 520 [0 0 0 0] ------- [2:0 3:0 32 3] [3] 0 0
r 1.059881015 _3_ MAC  --- 42 cbr 536 [13a 3 2 800] ------- [2:0 3:0 32 3] [5] 1 0
s 1.059891015 _3_ MAC  --- 0 ACK 38 [0 2 0 0] 
r 1.059906015 _3_ RTR  --- 42 cbr 536 [13a 3 2 800] ------- [2:0 3:0 32 3] [5] 1 0
r 1.059906015 _3_ AGT  --- 42 cbr 500 [13a 3 2 800] ------- [2:0 3:0 32 3] [5] 1 0
s 1.060000000 _0_ AGT  --- 70 cbr 500 [0 0 0 0] ------- [0:0 3:0 32 0] [15] 0 0
r 1.060000000 _0_ RTR  --- 70 cbr 500 [0 0 0 0] ------- [0:0 3:0 32 0] [15] 0 0
SFs 1.060000000 _0_ 70 [0 -> 3] 1(0) to 3 
s 1.060000000 _1_ AGT  --- 71 cbr 500 [0 0 0 0] ------- [1:0 3:0 32 0] [15] 0 0
r 1.060000000 _1_ RTR  --- 71 cbr 500 [0 0 0 0] ------- [1:0 3:0 32 0] [15] 0 0
SFs 1.060000000 _1_ 71 [1 -> 3] 1(0) to 3 
s 1.060000000 _2_ AGT  --- 72 cbr 500 [0 0 0 0] ------- [2:0 3:0 32 0] [15] 0 0
r 1.060000000 _2_ RTR  --- 72 cbr 500 [0 0 0 0] ------- [2:0 3:0 32 0] [15] 0 0
SFs 1.060000000 _2_ 72 [2 -> 3] 1(0) to 3 
s 1.060000000 _0_ RTR  --- 70 cbr 520 [0 0 0 0] ------- [0:0 3:0 32 3] [15] 0 0
s 1.060000000 _1_ RTR  --- 71 cbr 520 [0 0 0 0] ------- [1:0 3:0 32 3] [15] 0 0
s 1.060000000 _2_ RTR  --- 72 cbr 520 [0 0 0 0] ------- [2:0 3:0 32 3] [15] 0 0
r 1.060195486 _2_ MAC  --- 0 ACK 38 [0 2 0 0] 
s 1.060245486 _2_ MAC  --- 0 RTS 44 [150e 3 2 0] 
r 1.060597958 _3_ MAC  --- 0 RTS 44 [150e 3 2 0] 
s 1.060607958 _3_ MAC  --- 0 CTS 38 [13d4 2 0 0] 
r 1.060912429 _2_ MAC  --- 0 CTS 38 [13d4 2 0 0] 
s 1.060922429 _2_ MAC  --- 45 cbr 594 [13a 3 2 800] ------- [2:0 3:0 32 3] [6] 0 0
s 1.064000000 _0_ AGT  --- 73 cbr 500 [0 0 0 0] ------- [0:0 3:0 32 0] [16] 0 0
r 1.064000000 _0_ RTR  --- 73 cbr 500 [0 0 0 0] ------- [0:0 3:0 32 0] [16] 0 0
SFs 1.064000000 _0_ 73 [0 -> 3] 1(0) to 3 
s 1.064000000 _1_ AGT  --- 74 cbr 500 [0 0 0 0] ------- [1:0 3:0 32 0] [16] 0 0
r 1.064000000 _1_ RTR  --- 74 cbr 500 [0 0 0 0] ------- [1:0 3:0 32 0] [16] 0 0
SFs 1.064000000 _1_ 74 [1 -> 3] 1(0) to 3 
s 1.064000000 _2_ AGT  --- 75 cbr 500 [0 0 0 0] ------- [2:0 3:0 32 0] [16] 0 0
r 1.064000000 _2_ RTR  --- 75 cbr 500 [0 0 0 0] ------- [2:0 3:0 32 0] [16] 0 0
SFs 1.064000000 _2_ 75 [2 -> 3] 1(0) to 3 
s 1.064000000 _0_ RTR  --- 73 cbr 520 [0 0 0 0] ------- [0:0 3:0 32 3] [16] 0 0
s 1.064000000 _1_ RTR  --- 74 cbr 520 [0 0 0 0] ------- [1:0 3:0 32 3] [16] 0 0
s 1.064000000 _2_ RTR  --- 75 cbr 520 [0 0 0 0] ------- [2:0 3:0 32 3] [16] 0 0
r 1.065674900 _3_ MAC  --- 45 cbr 536 [13a 3 2 800] ------- [2:0 3:0 32 3] [6] 1 0
s 1.065684900 _3_ MAC  --- 0 ACK 38 [0 2 0 0] 
r 1.065699900 _3_ RTR  --- 45 cbr 536 [13a 3 2 800] ------- [2:0 3:0 32 3] [6] 1 0
r 1.065699900 _3_ AGT  --- 45 cbr 500 [13a 3 2 800] ------- [2:0 3:0 32 3] [6] 1 0
r 1.065989372 _2_ MAC  --- 0 ACK 38 [0 2 0 0] 
s 1.066139234 _0_ MAC  --- 0 RTS 44 [148e 3 0 0] 
s 1.066139372 _2_ MAC  --- 0 RTS 44 [148e 3 2 0] 
D 1.066139843 _3_ MAC  COL 0 RTS 44 [148e 3 0 0] 
D 1.066491843 _3_ MAC  COL 0 RTS 44 [148e 3 2 0] 
s 1.067245705 _1_ MAC  --- 0 RTS 44 [148e 3 1 0] 
r 1.067598038 _3_ MAC  --- 0 RTS 44 [148e 3 1 0] 
s 1.067608038 _3_ MAC  --- 0 CTS 38 [1354 1 0 0] 
r 1.067912372 _1_ MAC  --- 0 CTS 38 [1354 1 0 0] 
s 1.067922372 _1_ MAC  --- 35 cbr 578 [13a 3 1 800] ------- [1:0 3:0 32 3] [4] 0 0
s 1.068000000 _0_ AGT  --- 76 cbr 500 [0 0 0 0] ------- [0:0 3:0 32 0] [17] 0 0
r 1.068000000 _0_ RTR  --- 76 cbr 500 [0 0 0 0] ------- [0:0 3:0 32 0] [17] 0 0
SFs 1.068000000 _0_ 76 [0 -> 3] 1(0) to 3 
s 1.068000000 _1_ AGT  --- 77 cbr 500 [0 0 0 0] ------- [1:0 3:0 32 0] [17] 0 0
r 1.068000000 _1_ RTR  --- 77 cbr 500 [0 0 0 0] ------- [1:0 3:0 32 0] [17] 0 0
SFs 1.068000000 _1_ 77 [1 -> 3] 1(0) to 3 
s 1.068000000 _2_ AGT  --- 78 cbr 500 [0 0 0 0] ------- [2:0 3:0 32 0] [17] 0 0
r 1.068000000 _2_ RTR  --- 78 cbr 500 [0 0 0 0] ------- [2:0 3:0 32 0] [17] 0 0
SFs 1.068000000 _2_ 78 [2 -> 3] 1(0) to 3 
s 1.068000000 _0_ RTR  --- 76 cbr 520 [0 0 0 0] ------- [0:0 3:0 32 3] [17] 0 0
s 1.068000000 _1_ RTR  --- 77 cbr 520 [0 0 0 0] ------- [1:0 3:0 32 3] [17] 0 0
s 1.068000000 _2_ RTR  --- 78 cbr 520 [0 0 0 0] ------- [2:0 3:0 32 3] [17] 0 0
s 1.072000000 _0_ AGT  --- 79 cbr 500 [0 0 0 0] ------- [0:0 3:0 32 0] [18] 0 0
r 1.072000000 _0_ RTR  --- 79 cbr 500 [0 0 0 0] ------- [0:0 3:0 32 0] [18] 0 0
SFs 1.072000000 _0_ 79 [0 -> 3] 1(0) to 3 
s 1.072000000 _1_ AGT  --- 80 cbr 500 [0 0 0 0] ------- [1:0 3:0 32 0] [18] 0 0
r 1.072000000 _1_ RTR  --- 80 cbr 500 [0 0 0 0] ------- [1:0 3:0 32 0] [18] 0 0
SFs 1.072000000 _1_ 80 [1 -> 3] 1(0) to 3 
s 1.072000000 _2_ AGT  --- 81 cbr 500 [0 0 0 0] ------- [2:0 3:0 32 0] [18] 0 0
r 1.072000000 _2_ RTR  --- 81 cbr 500 [0 0 0 0] ------- [2:0 3:0 32 0] [18] 0 0
SFs 1.072000000 _2_ 81 [2 -> 3] 1(0) to 3 
s 1.072000000 _0_ RTR  --- 79 cbr 520 [0 0 0 0] ------- [0:0 3:0 32 3] [18] 0 0
s 1.072000000 _1_ RTR  --- 80 cbr 520 [0 0 0 0] ------- [1:0 3:0 32 3] [18] 0 0
s 1.072000000 _2_ RTR  --- 81 cbr 520 [0 0 0 0] ------- [2:0 3:0 32 3] [18] 0 0
r 1.072546705 _3_ MAC  --- 35 cbr 520 [13a 3 1 800] ------- [1:0 3:0 32 3] [4] 1 0
s 1.072556705 _3_ MAC  --- 0 ACK 38 [0 1 0 0] 
r 1.072571705 _3_ RTR  --- 35 cbr 520 [13a 3 1 800] ------- [1:0 3:0 32 3] [4] 1 0
r 1.072571705 _3_ AGT  --- 35 cbr 500 [13a 3 1 800] ------- [1:0 3:0 32 3] [4] 1 0
r 1.072861038 _1_ MAC  --- 0 ACK 38 [0 1 0 0] 
s 1.073084772 _0_ RTR  --- 14 cbr 536 [0 0 0 0] ------- [0:0 3:0 32 3] [2] 0 0
s 1.073151177 _2_ MAC  --- 0 RTS 44 [148e 3 2 0] 
r 1.073503648 _3_ MAC  --- 0 RTS 44 [148e 3 2 0] 
s 1.073513648 _3_ MAC  --- 0 CTS 38 [1354 2 0 0] 
r 1.073818119 _2_ MAC  --- 0 CTS 38 [1354 2 0 0] 
s 1.073828119 _2_ MAC  --- 48 cbr 578 [13a 3 2 800] ------- [2:0 3:0 32 3] [7] 0 0
s 1.074942105 _1_ RTR  --- 16 cbr 536 [0 0 0 0] ------- [1:0 3:0 32 3] [2] 0 0
s 1.076000000 _0_ AGT  --- 82 cbr 500 [0 0 0 0] ------- [0:0 3:0 32 0] [19] 0 0
r 1.076000000 _0_ RTR  --- 82 cbr 500 [0 0 0 0] ------- [0:0 3:0 32 0] [19] 0 0
SFs 1.076000000 _0_ 82 [0 -> 3] 1(0) to 3 
s 1.076000000 _1_ AGT  --- 83 cbr 500 [0 0 0 0] ------- [1:0 3:0 32 0] [19] 0 0
r 1.076000000 _1_ RTR  --- 83 cbr 500 [0 0 0 0] ------- [1:0 3:0 32 0] [19] 0 0
SFs 1.076000000 _1_ 83 [1 -> 3] 1(0) to 3 
s 1.076000000 _2_ AGT  --- 84 cbr 500 [0 0 0 0] ------- [2:0 3:0 32 0] [19] 0 0
r 1.076000000 _2_ RTR  --- 84 cbr 500 [0 0 0 0] ------- [2:0 3:0 32 0] [19] 0 0
SFs 1.076000000 _2_ 84 [2 -> 3] 1(0) to 3 