n -t * -s 3  -x 0 -y 0 -Z 0 -z 10  -v circle -c black
n -t * -s 0  -x 100 -y 0 -Z 0 -z 10  -v circle -c black
n -t * -s 1  -x 0 -y 100 -Z 0 -z 10  -v circle -c black
n -t * -s 2  -x 100 -y 100 -Z 0 -z 10  -v circle -c black
V -t * -v 1.0a5 -a 0
W -t * -x 500 -y 500
A -t * -n 1 -p 0 -o 0x7fffffff -c 30 -a 1
A -t * -h 1 -m 1073741823 -s 0
+ -t 1.000000000 -s 0 -d -1 -p cbr -e 500 -c 2 -a 0 -i 0 -k AGT 
- -t 1.000000000 -s 0 -d -1 -p cbr -e 500 -c 2 -a 0 -i 0 -k AGT
h -t 1.000000000 -s 0 -d -1 -p cbr -e 500 -c 2 -a 0 -i 0 -k AGT
+ -t 1.000000000 -s 1 -d -1 -p cbr -e 500 -c 2 -a 0 -i 2 -k AGT 
- -t 1.000000000 -s 1 -d -1 -p cbr -e 500 -c 2 -a 0 -i 2 -k AGT
h -t 1.000000000 -s 1 -d -1 -p cbr -e 500 -c 2 -a 0 -i 2 -k AGT
+ -t 1.000000000 -s 2 -d -1 -p cbr -e 500 -c 2 -a 0 -i 4 -k AGT 
- -t 1.000000000 -s 2 -d -1 -p cbr -e 500 -c 2 -a 0 -i 4 -k AGT
h -t 1.000000000 -s 2 -d -1 -p cbr -e 500 -c 2 -a 0 -i 4 -k AGT
+ -t 1.000834299 -s 0 -d -1 -p DSR -e 32 -c 2 -a 0 -i 1 -k RTR 
- -t 1.000834299 -s 0 -d -1 -p DSR -e 32 -c 2 -a 0 -i 1 -k RTR
h -t 1.000834299 -s 0 -d -1 -p DSR -e 32 -c 2 -a 0 -i 1 -k RTR
+ -t 1.001349299 -s 0 -d -1 -p DSR -e 90 -c 2 -a 0 -i 1 -k MAC 
- -t 1.001349299 -s 0 -d -1 -p DSR -e 90 -c 2 -a 0 -i 1 -k MAC
h -t 1.001349299 -s 0 -d -1 -p DSR -e 90 -c 2 -a 0 -i 1 -k MAC
r -t 1.002069632 -s 3 -d -1 -p DSR -e 32 -c 2 -a 0 -i 1 -k MAC
r -t 1.002069632 -s 2 -d -1 -p DSR -e 32 -c 2 -a 0 -i 1 -k MAC
r -t 1.002069770 -s 1 -d -1 -p DSR -e 32 -c 2 -a 0 -i 1 -k MAC
+ -t 1.003322144 -s 1 -d -1 -p DSR -e 32 -c 2 -a 0 -i 3 -k RTR 
- -t 1.003322144 -s 1 -d -1 -p DSR -e 32 -c 2 -a 0 -i 3 -k RTR
h -t 1.003322144 -s 1 -d -1 -p DSR -e 32 -c 2 -a 0 -i 3 -k RTR
+ -t 1.003557144 -s 1 -d -1 -p DSR -e 90 -c 2 -a 0 -i 3 -k MAC 
- -t 1.003557144 -s 1 -d -1 -p DSR -e 90 -c 2 -a 0 -i 3 -k MAC
h -t 1.003557144 -s 1 -d -1 -p DSR -e 90 -c 2 -a 0 -i 3 -k MAC
+ -t 1.004000000 -s 0 -d -1 -p cbr -e 500 -c 2 -a 0 -i 7 -k AGT 
- -t 1.004000000 -s 0 -d -1 -p cbr -e 500 -c 2 -a 0 -i 7 -k AGT
h -t 1.004000000 -s 0 -d -1 -p cbr -e 500 -c 2 -a 0 -i 7 -k AGT
+ -t 1.004000000 -s 1 -d -1 -p cbr -e 500 -c 2 -a 0 -i 9 -k AGT 
- -t 1.004000000 -s 1 -d -1 -p cbr -e 500 -c 2 -a 0 -i 9 -k AGT
h -t 1.004000000 -s 1 -d -1 -p cbr -e 500 -c 2 -a 0 -i 9 -k AGT
+ -t 1.004000000 -s 2 -d -1 -p cbr -e 500 -c 2 -a 0 -i 11 -k AGT 
- -t 1.004000000 -s 2 -d -1 -p cbr -e 500 -c 2 -a 0 -i 11 -k AGT
h -t 1.004000000 -s 2 -d -1 -p cbr -e 500 -c 2 -a 0 -i 11 -k AGT
r -t 1.004277478 -s 3 -d -1 -p DSR -e 32 -c 2 -a 0 -i 3 -k MAC
r -t 1.004277478 -s 2 -d -1 -p DSR -e 32 -c 2 -a 0 -i 3 -k MAC
r -t 1.004277616 -s 0 -d -1 -p DSR -e 32 -c 2 -a 0 -i 3 -k MAC
+ -t 1.005747105 -s 3 -d 0 -p DSR -e 44 -c 2 -a 0 -i 6 -k RTR 
- -t 1.005747105 -s 3 -d 0 -p DSR -e 44 -c 2 -a 0 -i 6 -k RTR
h -t 1.005747105 -s 3 -d 0 -p DSR -e 44 -c 2 -a 0 -i 6 -k RTR
+ -t 1.005942105 -s 3 -d -1 -p ARP -e 86 -c 2 -a 0 -i 0 -k MAC 
- -t 1.005942105 -s 3 -d -1 -p ARP -e 86 -c 2 -a 0 -i 0 -k MAC
h -t 1.005942105 -s 3 -d -1 -p ARP -e 86 -c 2 -a 0 -i 0 -k MAC
r -t 1.006630439 -s 1 -d -1 -p ARP -e 28 -c 2 -a 0 -i 0 -k MAC
r -t 1.006630439 -s 0 -d -1 -p ARP -e 28 -c 2 -a 0 -i 0 -k MAC
r -t 1.006630577 -s 2 -d -1 -p ARP -e 28 -c 2 -a 0 -i 0 -k MAC
+ -t 1.006956898 -s 2 -d -1 -p DSR -e 32 -c 2 -a 0 -i 5 -k RTR 
- -t 1.006956898 -s 2 -d -1 -p DSR -e 32 -c 2 -a 0 -i 5 -k RTR
h -t 1.006956898 -s 2 -d -1 -p DSR -e 32 -c 2 -a 0 -i 5 -k RTR
+ -t 1.007005439 -s 0 -d -1 -p RTS -e 44 -c 2 -a 0 -i 0 -k MAC 
- -t 1.007005439 -s 0 -d -1 -p RTS -e 44 -c 2 -a 0 -i 0 -k MAC
h -t 1.007005439 -s 0 -d -1 -p RTS -e 44 -c 2 -a 0 -i 0 -k MAC
r -t 1.007357772 -s 3 -d -1 -p RTS -e 44 -c 2 -a 0 -i 0 -k MAC
+ -t 1.007367772 -s 3 -d -1 -p CTS -e 38 -c 2 -a 0 -i 0 -k MAC 
- -t 1.007367772 -s 3 -d -1 -p CTS -e 38 -c 2 -a 0 -i 0 -k MAC
h -t 1.007367772 -s 3 -d -1 -p CTS -e 38 -c 2 -a 0 -i 0 -k MAC
+ -t 1.007519826 -s 3 -d 1 -p DSR -e 44 -c 2 -a 0 -i 13 -k RTR 
- -t 1.007519826 -s 3 -d 1 -p DSR -e 44 -c 2 -a 0 -i 13 -k RTR
h -t 1.007519826 -s 3 -d 1 -p DSR -e 44 -c 2 -a 0 -i 13 -k RTR
r -t 1.007672105 -s 0 -d -1 -p CTS -e 38 -c 2 -a 0 -i 0 -k MAC
+ -t 1.007682105 -s 0 -d -1 -p ARP -e 86 -c 2 -a 0 -i 0 -k MAC 
- -t 1.007682105 -s 0 -d -1 -p ARP -e 86 -c 2 -a 0 -i 0 -k MAC
h -t 1.007682105 -s 0 -d -1 -p ARP -e 86 -c 2 -a 0 -i 0 -k MAC
+ -t 1.008000000 -s 0 -d -1 -p cbr -e 500 -c 2 -a 0 -i 14 -k AGT 
- -t 1.008000000 -s 0 -d -1 -p cbr -e 500 -c 2 -a 0 -i 14 -k AGT
h -t 1.008000000 -s 0 -d -1 -p cbr -e 500 -c 2 -a 0 -i 14 -k AGT
+ -t 1.008000000 -s 1 -d -1 -p cbr -e 500 -c 2 -a 0 -i 16 -k AGT 
- -t 1.008000000 -s 1 -d -1 -p cbr -e 500 -c 2 -a 0 -i 16 -k AGT
h -t 1.008000000 -s 1 -d -1 -p cbr -e 500 -c 2 -a 0 -i 16 -k AGT
+ -t 1.008000000 -s 2 -d -1 -p cbr -e 500 -c 2 -a 0 -i 18 -k AGT 
- -t 1.008000000 -s 2 -d -1 -p cbr -e 500 -c 2 -a 0 -i 18 -k AGT
h -t 1.008000000 -s 2 -d -1 -p cbr -e 500 -c 2 -a 0 -i 18 -k AGT
r -t 1.008370439 -s 3 -d -1 -p ARP -e 28 -c 2 -a 0 -i 0 -k MAC
+ -t 1.008380439 -s 3 -d -1 -p ACK -e 38 -c 2 -a 0 -i 0 -k MAC 
- -t 1.008380439 -s 3 -d -1 -p ACK -e 38 -c 2 -a 0 -i 0 -k MAC
h -t 1.008380439 -s 3 -d -1 -p ACK -e 38 -c 2 -a 0 -i 0 -k MAC
r -t 1.008684772 -s 0 -d -1 -p ACK -e 38 -c 2 -a 0 -i 0 -k MAC
+ -t 1.008774439 -s 3 -d -1 -p ARP -e 86 -c 2 -a 0 -i 0 -k MAC 
- -t 1.008774439 -s 3 -d -1 -p ARP -e 86 -c 2 -a 0 -i 0 -k MAC
h -t 1.008774439 -s 3 -d -1 -p ARP -e 86 -c 2 -a 0 -i 0 -k MAC
r -t 1.009462772 -s 1 -d -1 -p ARP -e 28 -c 2 -a 0 -i 0 -k MAC
r -t 1.009462772 -s 0 -d -1 -p ARP -e 28 -c 2 -a 0 -i 0 -k MAC
r -t 1.009462910 -s 2 -d -1 -p ARP -e 28 -c 2 -a 0 -i 0 -k MAC
+ -t 1.009677772 -s 1 -d -1 -p RTS -e 44 -c 2 -a 0 -i 0 -k MAC 
- -t 1.009677772 -s 1 -d -1 -p RTS -e 44 -c 2 -a 0 -i 0 -k MAC
h -t 1.009677772 -s 1 -d -1 -p RTS -e 44 -c 2 -a 0 -i 0 -k MAC
r -t 1.010030105 -s 3 -d -1 -p RTS -e 44 -c 2 -a 0 -i 0 -k MAC
+ -t 1.010040105 -s 3 -d -1 -p CTS -e 38 -c 2 -a 0 -i 0 -k MAC 
- -t 1.010040105 -s 3 -d -1 -p CTS -e 38 -c 2 -a 0 -i 0 -k MAC
h -t 1.010040105 -s 3 -d -1 -p CTS -e 38 -c 2 -a 0 -i 0 -k MAC
r -t 1.010344439 -s 1 -d -1 -p CTS -e 38 -c 2 -a 0 -i 0 -k MAC
+ -t 1.010354439 -s 1 -d -1 -p ARP -e 86 -c 2 -a 0 -i 0 -k MAC 
- -t 1.010354439 -s 1 -d -1 -p ARP -e 86 -c 2 -a 0 -i 0 -k MAC
h -t 1.010354439 -s 1 -d -1 -p ARP -e 86 -c 2 -a 0 -i 0 -k MAC
r -t 1.011042772 -s 3 -d -1 -p ARP -e 28 -c 2 -a 0 -i 0 -k MAC
+ -t 1.011052772 -s 3 -d -1 -p ACK -e 38 -c 2 -a 0 -i 0 -k MAC 
- -t 1.011052772 -s 3 -d -1 -p ACK -e 38 -c 2 -a 0 -i 0 -k MAC
h -t 1.011052772 -s 3 -d -1 -p ACK -e 38 -c 2 -a 0 -i 0 -k MAC
r -t 1.011357105 -s 1 -d -1 -p ACK -e 38 -c 2 -a 0 -i 0 -k MAC
+ -t 1.011566772 -s 3 -d -1 -p RTS -e 44 -c 2 -a 0 -i 0 -k MAC 
- -t 1.011566772 -s 3 -d -1 -p RTS -e 44 -c 2 -a 0 -i 0 -k MAC
h -t 1.011566772 -s 3 -d -1 -p RTS -e 44 -c 2 -a 0 -i 0 -k MAC
r -t 1.011919105 -s 0 -d -1 -p RTS -e 44 -c 2 -a 0 -i 0 -k MAC
+ -t 1.011929105 -s 0 -d -1 -p CTS -e 38 -c 2 -a 0 -i 0 -k MAC 
- -t 1.011929105 -s 0 -d -1 -p CTS -e 38 -c 2 -a 0 -i 0 -k MAC
h -t 1.011929105 -s 0 -d -1 -p CTS -e 38 -c 2 -a 0 -i 0 -k MAC
+ -t 1.012000000 -s 0 -d -1 -p cbr -e 500 -c 2 -a 0 -i 20 -k AGT 
- -t 1.012000000 -s 0 -d -1 -p cbr -e 500 -c 2 -a 0 -i 20 -k AGT
h -t 1.012000000 -s 0 -d -1 -p cbr -e 500 -c 2 -a 0 -i 20 -k AGT
+ -t 1.012000000 -s 1 -d -1 -p cbr -e 500 -c 2 -a 0 -i 22 -k AGT 
- -t 1.012000000 -s 1 -d -1 -p cbr -e 500 -c 2 -a 0 -i 22 -k AGT
h -t 1.012000000 -s 1 -d -1 -p cbr -e 500 -c 2 -a 0 -i 22 -k AGT
+ -t 1.012000000 -s 2 -d -1 -p cbr -e 500 -c 2 -a 0 -i 24 -k AGT 
- -t 1.012000000 -s 2 -d -1 -p cbr -e 500 -c 2 -a 0 -i 24 -k AGT
h -t 1.012000000 -s 2 -d -1 -p cbr -e 500 -c 2 -a 0 -i 24 -k AGT
r -t 1.012233439 -s 3 -d -1 -p CTS -e 38 -c 2 -a 0 -i 0 -k MAC
+ -t 1.012243439 -s 3 -d 0 -p DSR -e 102 -c 2 -a 0 -i 6 -k MAC 
- -t 1.012243439 -s 3 -d 0 -p DSR -e 102 -c 2 -a 0 -i 6 -k MAC
h -t 1.012243439 -s 3 -d 0 -p DSR -e 102 -c 2 -a 0 -i 6 -k MAC
r -t 1.013059772 -s 0 -d 0 -p DSR -e 44 -c 2 -a 0 -i 6 -k MAC
+ -t 1.013069772 -s 0 -d -1 -p ACK -e 38 -c 2 -a 0 -i 0 -k MAC 
- -t 1.013069772 -s 0 -d -1 -p ACK -e 38 -c 2 -a 0 -i 0 -k MAC
h -t 1.013069772 -s 0 -d -1 -p ACK -e 38 -c 2 -a 0 -i 0 -k MAC
+ -t 1.013084772 -s 0 -d 3 -p cbr -e 536 -c 2 -a 0 -i 0 -k RTR 
- -t 1.013084772 -s 0 -d 3 -p cbr -e 536 -c 2 -a 0 -i 0 -k RTR
h -t 1.013084772 -s 0 -d 3 -p cbr -e 536 -c 2 -a 0 -i 0 -k RTR
r -t 1.013374105 -s 3 -d -1 -p ACK -e 38 -c 2 -a 0 -i 0 -k MAC
+ -t 1.013424105 -s 3 -d -1 -p RTS -e 44 -c 2 -a 0 -i 0 -k MAC 
- -t 1.013424105 -s 3 -d -1 -p RTS -e 44 -c 2 -a 0 -i 0 -k MAC
h -t 1.013424105 -s 3 -d -1 -p RTS -e 44 -c 2 -a 0 -i 0 -k MAC
r -t 1.013776439 -s 1 -d -1 -p RTS -e 44 -c 2 -a 0 -i 0 -k MAC
+ -t 1.013786439 -s 1 -d -1 -p CTS -e 38 -c 2 -a 0 -i 0 -k MAC 
- -t 1.013786439 -s 1 -d -1 -p CTS -e 38 -c 2 -a 0 -i 0 -k MAC
h -t 1.013786439 -s 1 -d -1 -p CTS -e 38 -c 2 -a 0 -i 0 -k MAC
r -t 1.014090772 -s 3 -d -1 -p CTS -e 38 -c 2 -a 0 -i 0 -k MAC
+ -t 1.014100772 -s 3 -d 1 -p DSR -e 102 -c 2 -a 0 -i 13 -k MAC 
- -t 1.014100772 -s 3 -d 1 -p DSR -e 102 -c 2 -a 0 -i 13 -k MAC
h -t 1.014100772 -s 3 -d 1 -p DSR -e 102 -c 2 -a 0 -i 13 -k MAC
r -t 1.014917105 -s 1 -d 1 -p DSR -e 44 -c 2 -a 0 -i 13 -k MAC
+ -t 1.014927105 -s 1 -d -1 -p ACK -e 38 -c 2 -a 0 -i 0 -k MAC 
- -t 1.014927105 -s 1 -d -1 -p ACK -e 38 -c 2 -a 0 -i 0 -k MAC
h -t 1.014927105 -s 1 -d -1 -p ACK -e 38 -c 2 -a 0 -i 0 -k MAC
+ -t 1.014942105 -s 1 -d 3 -p cbr -e 536 -c 2 -a 0 -i 2 -k RTR 
- -t 1.014942105 -s 1 -d 3 -p cbr -e 536 -c 2 -a 0 -i 2 -k RTR
h -t 1.014942105 -s 1 -d 3 -p cbr -e 536 -c 2 -a 0 -i 2 -k RTR
r -t 1.015231439 -s 3 -d -1 -p ACK -e 38 -c 2 -a 0 -i 0 -k MAC
+ -t 1.015381439 -s 2 -d -1 -p DSR -e 90 -c 2 -a 0 -i 5 -k MAC 
- -t 1.015381439 -s 2 -d -1 -p DSR -e 90 -c 2 -a 0 -i 5 -k MAC
h -t 1.015381439 -s 2 -d -1 -p DSR -e 90 -c 2 -a 0 -i 5 -k MAC
+ -t 1.016000000 -s 0 -d -1 -p cbr -e 500 -c 2 -a 0 -i 34 -k AGT 
- -t 1.016000000 -s 0 -d -1 -p cbr -e 500 -c 2 -a 0 -i 34 -k AGT
h -t 1.016000000 -s 0 -d -1 -p cbr -e 500 -c 2 -a 0 -i 34 -k AGT
+ -t 1.016000000 -s 1 -d -1 -p cbr -e 500 -c 2 -a 0 -i 35 -k AGT 
- -t 1.016000000 -s 1 -d -1 -p cbr -e 500 -c 2 -a 0 -i 35 -k AGT
h -t 1.016000000 -s 1 -d -1 -p cbr -e 500 -c 2 -a 0 -i 35 -k AGT
+ -t 1.016000000 -s 2 -d -1 -p cbr -e 500 -c 2 -a 0 -i 36 -k AGT 
- -t 1.016000000 -s 2 -d -1 -p cbr -e 500 -c 2 -a 0 -i 36 -k AGT
h -t 1.016000000 -s 2 -d -1 -p cbr -e 500 -c 2 -a 0 -i 36 -k AGT
+ -t 1.016000000 -s 0 -d 3 -p cbr -e 520 -c 2 -a 0 -i 34 -k RTR 
- -t 1.016000000 -s 0 -d 3 -p cbr -e 520 -c 2 -a 0 -i 34 -k RTR
h -t 1.016000000 -s 0 -d 3 -p cbr -e 520 -c 2 -a 0 -i 34 -k RTR
+ -t 1.016000000 -s 1 -d 3 -p cbr -e 520 -c 2 -a 0 -i 35 -k RTR 
- -t 1.016000000 -s 1 -d 3 -p cbr -e 520 -c 2 -a 0 -i 35 -k RTR
h -t 1.016000000 -s 1 -d 3 -p cbr -e 520 -c 2 -a 0 -i 35 -k RTR
+ -t 1.016000000 -s 2 -d 3 -p cbr -e 536 -c 2 -a 0 -i 36 -k RTR 
- -t 1.016000000 -s 2 -d 3 -p cbr -e 536 -c 2 -a 0 -i 36 -k RTR
h -t 1.016000000 -s 2 -d 3 -p cbr -e 536 -c 2 -a 0 -i 36 -k RTR
r -t 1.016101772 -s 0 -d -1 -p DSR -e 32 -c 2 -a 0 -i 5 -k MAC
r -t 1.016101772 -s 1 -d -1 -p DSR -e 32 -c 2 -a 0 -i 5 -k MAC
r -t 1.016101910 -s 3 -d -1 -p DSR -e 32 -c 2 -a 0 -i 5 -k MAC
+ -t 1.016126772 -s 0 -d 2 -p DSR -e 48 -c 2 -a 0 -i 37 -k RTR 
- -t 1.016126772 -s 0 -d 2 -p DSR -e 48 -c 2 -a 0 -i 37 -k RTR
h -t 1.016126772 -s 0 -d 2 -p DSR -e 48 -c 2 -a 0 -i 37 -k RTR
+ -t 1.016126772 -s 1 -d 2 -p DSR -e 48 -c 2 -a 0 -i 38 -k RTR 
- -t 1.016126772 -s 1 -d 2 -p DSR -e 48 -c 2 -a 0 -i 38 -k RTR
h -t 1.016126772 -s 1 -d 2 -p DSR -e 48 -c 2 -a 0 -i 38 -k RTR
+ -t 1.016231772 -s 0 -d -1 -p RTS -e 44 -c 2 -a 0 -i 0 -k MAC 
- -t 1.016231772 -s 0 -d -1 -p RTS -e 44 -c 2 -a 0 -i 0 -k MAC
h -t 1.016231772 -s 0 -d -1 -p RTS -e 44 -c 2 -a 0 -i 0 -k MAC
r -t 1.016584105 -s 3 -d -1 -p RTS -e 44 -c 2 -a 0 -i 0 -k MAC
+ -t 1.016594105 -s 3 -d -1 -p CTS -e 38 -c 2 -a 0 -i 0 -k MAC 
- -t 1.016594105 -s 3 -d -1 -p CTS -e 38 -c 2 -a 0 -i 0 -k MAC
h -t 1.016594105 -s 3 -d -1 -p CTS -e 38 -c 2 -a 0 -i 0 -k MAC
r -t 1.016898439 -s 0 -d -1 -p CTS -e 38 -c 2 -a 0 -i 0 -k MAC
+ -t 1.016908439 -s 0 -d 3 -p cbr -e 594 -c 2 -a 0 -i 0 -k MAC 
- -t 1.016908439 -s 0 -d 3 -p cbr -e 594 -c 2 -a 0 -i 0 -k MAC
h -t 1.016908439 -s 0 -d 3 -p cbr -e 594 -c 2 -a 0 -i 0 -k MAC
+ -t 1.017318681 -s 3 -d 2 -p DSR -e 44 -c 2 -a 0 -i 39 -k RTR 
- -t 1.017318681 -s 3 -d 2 -p DSR -e 44 -c 2 -a 0 -i 39 -k RTR
h -t 1.017318681 -s 3 -d 2 -p DSR -e 44 -c 2 -a 0 -i 39 -k RTR
+ -t 1.020000000 -s 0 -d -1 -p cbr -e 500 -c 2 -a 0 -i 40 -k AGT 
- -t 1.020000000 -s 0 -d -1 -p cbr -e 500 -c 2 -a 0 -i 40 -k AGT
h -t 1.020000000 -s 0 -d -1 -p cbr -e 500 -c 2 -a 0 -i 40 -k AGT
+ -t 1.020000000 -s 1 -d -1 -p cbr -e 500 -c 2 -a 0 -i 41 -k AGT 
- -t 1.020000000 -s 1 -d -1 -p cbr -e 500 -c 2 -a 0 -i 41 -k AGT
h -t 1.020000000 -s 1 -d -1 -p cbr -e 500 -c 2 -a 0 -i 41 -k AGT
+ -t 1.020000000 -s 2 -d -1 -p cbr -e 500 -c 2 -a 0 -i 42 -k AGT 
- -t 1.020000000 -s 2 -d -1 -p cbr -e 500 -c 2 -a 0 -i 42 -k AGT
h -t 1.020000000 -s 2 -d -1 -p cbr -e 500 -c 2 -a 0 -i 42 -k AGT
+ -t 1.020000000 -s 0 -d 3 -p cbr -e 520 -c 2 -a 0 -i 40 -k RTR 
- -t 1.020000000 -s 0 -d 3 -p cbr -e 520 -c 2 -a 0 -i 40 -k RTR
h -t 1.020000000 -s 0 -d 3 -p cbr -e 520 -c 2 -a 0 -i 40 -k RTR
+ -t 1.020000000 -s 1 -d 3 -p cbr -e 520 -c 2 -a 0 -i 41 -k RTR 
- -t 1.020000000 -s 1 -d 3 -p cbr -e 520 -c 2 -a 0 -i 41 -k RTR
h -t 1.020000000 -s 1 -d 3 -p cbr -e 520 -c 2 -a 0 -i 41 -k RTR
+ -t 1.020000000 -s 2 -d 3 -p cbr -e 536 -c 2 -a 0 -i 42 -k RTR 
- -t 1.020000000 -s 2 -d 3 -p cbr -e 536 -c 2 -a 0 -i 42 -k RTR
h -t 1.020000000 -s 2 -d 3 -p cbr -e 536 -c 2 -a 0 -i 42 -k RTR
r -t 1.021660772 -s 3 -d 3 -p cbr -e 536 -c 2 -a 0 -i 0 -k MAC
+ -t 1.021670772 -s 3 -d -1 -p ACK -e 38 -c 2 -a 0 -i 0 -k MAC 
- -t 1.021670772 -s 3 -d -1 -p ACK -e 38 -c 2 -a 0 -i 0 -k MAC
h -t 1.021670772 -s 3 -d -1 -p ACK -e 38 -c 2 -a 0 -i 0 -k MAC
r -t 1.021685772 -s 3 -d 3 -p cbr -e 500 -c 2 -a 0 -i 0 -k AGT
r -t 1.021975105 -s 0 -d -1 -p ACK -e 38 -c 2 -a 0 -i 0 -k MAC
+ -t 1.022085105 -s 0 -d -1 -p RTS -e 44 -c 2 -a 0 -i 0 -k MAC 
- -t 1.022085105 -s 0 -d -1 -p RTS -e 44 -c 2 -a 0 -i 0 -k MAC
h -t 1.022085105 -s 0 -d -1 -p RTS -e 44 -c 2 -a 0 -i 0 -k MAC
r -t 1.022437439 -s 3 -d -1 -p RTS -e 44 -c 2 -a 0 -i 0 -k MAC
+ -t 1.022447439 -s 3 -d -1 -p CTS -e 38 -c 2 -a 0 -i 0 -k MAC 
- -t 1.022447439 -s 3 -d -1 -p CTS -e 38 -c 2 -a 0 -i 0 -k MAC
h -t 1.022447439 -s 3 -d -1 -p CTS -e 38 -c 2 -a 0 -i 0 -k MAC
r -t 1.022751772 -s 0 -d -1 -p CTS -e 38 -c 2 -a 0 -i 0 -k MAC
+ -t 1.022761772 -s 0 -d 3 -p cbr -e 578 -c 2 -a 0 -i 34 -k MAC 
- -t 1.022761772 -s 0 -d 3 -p cbr -e 578 -c 2 -a 0 -i 34 -k MAC
h -t 1.022761772 -s 0 -d 3 -p cbr -e 578 -c 2 -a 0 -i 34 -k MAC
+ -t 1.024000000 -s 0 -d -1 -p cbr -e 500 -c 2 -a 0 -i 43 -k AGT 
- -t 1.024000000 -s 0 -d -1 -p cbr -e 500 -c 2 -a 0 -i 43 -k AGT
h -t 1.024000000 -s 0 -d -1 -p cbr -e 500 -c 2 -a 0 -i 43 -k AGT
+ -t 1.024000000 -s 1 -d -1 -p cbr -e 500 -c 2 -a 0 -i 44 -k AGT 
- -t 1.024000000 -s 1 -d -1 -p cbr -e 500 -c 2 -a 0 -i 44 -k AGT
h -t 1.024000000 -s 1 -d -1 -p cbr -e 500 -c 2 -a 0 -i 44 -k AGT
+ -t 1.024000000 -s 2 -d -1 -p cbr -e 500 -c 2 -a 0 -i 45 -k AGT 
- -t 1.024000000 -s 2 -d -1 -p cbr -e 500 -c 2 -a 0 -i 45 -k AGT
h -t 1.024000000 -s 2 -d -1 -p cbr -e 500 -c 2 -a 0 -i 45 -k AGT
+ -t 1.024000000 -s 0 -d 3 -p cbr -e 520 -c 2 -a 0 -i 43 -k RTR 
- -t 1.024000000 -s 0 -d 3 -p cbr -e 520 -c 2 -a 0 -i 43 -k RTR
h -t 1.024000000 -s 0 -d 3 -p cbr -e 520 -c 2 -a 0 -i 43 -k RTR
+ -t 1.024000000 -s 1 -d 3 -p cbr -e 520 -c 2 -a 0 -i 44 -k RTR 
- -t 1.024000000 -s 1 -d 3 -p cbr -e 520 -c 2 -a 0 -i 44 -k RTR
h -t 1.024000000 -s 1 -d 3 -p cbr -e 520 -c 2 -a 0 -i 44 -k RTR
+ -t 1.024000000 -s 2 -d 3 -p cbr -e 536 -c 2 -a 0 -i 45 -k RTR 
- -t 1.024000000 -s 2 -d 3 -p cbr -e 536 -c 2 -a 0 -i 45 -k RTR
h -t 1.024000000 -s 2 -d 3 -p cbr -e 536 -c 2 -a 0 -i 45 -k RTR
r -t 1.027386105 -s 3 -d 3 -p cbr -e 520 -c 2 -a 0 -i 34 -k MAC
+ -t 1.027396105 -s 3 -d -1 -p ACK -e 38 -c 2 -a 0 -i 0 -k MAC 
- -t 1.027396105 -s 3 -d -1 -p ACK -e 38 -c 2 -a 0 -i 0 -k MAC
h -t 1.027396105 -s 3 -d -1 -p ACK -e 38 -c 2 -a 0 -i 0 -k MAC
r -t 1.027411105 -s 3 -d 3 -p cbr -e 500 -c 2 -a 0 -i 34 -k AGT
r -t 1.027700439 -s 0 -d -1 -p ACK -e 38 -c 2 -a 0 -i 0 -k MAC
+ -t 1.028000000 -s 0 -d -1 -p cbr -e 500 -c 2 -a 0 -i 46 -k AGT 
- -t 1.028000000 -s 0 -d -1 -p cbr -e 500 -c 2 -a 0 -i 46 -k AGT
h -t 1.028000000 -s 0 -d -1 -p cbr -e 500 -c 2 -a 0 -i 46 -k AGT
+ -t 1.028000000 -s 1 -d -1 -p cbr -e 500 -c 2 -a 0 -i 47 -k AGT 
- -t 1.028000000 -s 1 -d -1 -p cbr -e 500 -c 2 -a 0 -i 47 -k AGT
h -t 1.028000000 -s 1 -d -1 -p cbr -e 500 -c 2 -a 0 -i 47 -k AGT
+ -t 1.028000000 -s 2 -d -1 -p cbr -e 500 -c 2 -a 0 -i 48 -k AGT 
- -t 1.028000000 -s 2 -d -1 -p cbr -e 500 -c 2 -a 0 -i 48 -k AGT
h -t 1.028000000 -s 2 -d -1 -p cbr -e 500 -c 2 -a 0 -i 48 -k AGT
+ -t 1.028000000 -s 0 -d 3 -p cbr -e 520 -c 2 -a 0 -i 46 -k RTR 
- -t 1.028000000 -s 0 -d 3 -p cbr -e 520 -c 2 -a 0 -i 46 -k RTR
h -t 1.028000000 -s 0 -d 3 -p cbr -e 520 -c 2 -a 0 -i 46 -k RTR
+ -t 1.028000000 -s 1 -d 3 -p cbr -e 520 -c 2 -a 0 -i 47 -k RTR 
- -t 1.028000000 -s 1 -d 3 -p cbr -e 520 -c 2 -a 0 -i 47 -k RTR
h -t 1.028000000 -s 1 -d 3 -p cbr -e 520 -c 2 -a 0 -i 47 -k RTR
+ -t 1.028000000 -s 2 -d 3 -p cbr -e 520 -c 2 -a 0 -i 48 -k RTR 
- -t 1.028000000 -s 2 -d 3 -p cbr -e 520 -c 2 -a 0 -i 48 -k RTR
h -t 1.028000000 -s 2 -d 3 -p cbr -e 520 -c 2 -a 0 -i 48 -k RTR
+ -t 1.028010439 -s 0 -d -1 -p ARP -e 86 -c 2 -a 0 -i 0 -k MAC 
- -t 1.028010439 -s 0 -d -1 -p ARP -e 86 -c 2 -a 0 -i 0 -k MAC
h -t 1.028010439 -s 0 -d -1 -p ARP -e 86 -c 2 -a 0 -i 0 -k MAC
r -t 1.028698772 -s 3 -d -1 -p ARP -e 28 -c 2 -a 0 -i 0 -k MAC
r -t 1.028698772 -s 2 -d -1 -p ARP -e 28 -c 2 -a 0 -i 0 -k MAC
r -t 1.028698910 -s 1 -d -1 -p ARP -e 28 -c 2 -a 0 -i 0 -k MAC
+ -t 1.028768439 -s 0 -d -1 -p RTS -e 44 -c 2 -a 0 -i 0 -k MAC 
- -t 1.028768439 -s 0 -d -1 -p RTS -e 44 -c 2 -a 0 -i 0 -k MAC
h -t 1.028768439 -s 0 -d -1 -p RTS -e 44 -c 2 -a 0 -i 0 -k MAC
+ -t 1.028768772 -s 2 -d -1 -p RTS -e 44 -c 2 -a 0 -i 0 -k MAC 
- -t 1.028768772 -s 2 -d -1 -p RTS -e 44 -c 2 -a 0 -i 0 -k MAC
h -t 1.028768772 -s 2 -d -1 -p RTS -e 44 -c 2 -a 0 -i 0 -k MAC
+ -t 1.028768910 -s 1 -d -1 -p RTS -e 44 -c 2 -a 0 -i 0 -k MAC 
- -t 1.028768910 -s 1 -d -1 -p RTS -e 44 -c 2 -a 0 -i 0 -k MAC
h -t 1.028768910 -s 1 -d -1 -p RTS -e 44 -c 2 -a 0 -i 0 -k MAC
d -t 1.028769244 -s 3 -d -1 -p RTS -e 44 -c 2 -a 0 -i 0 -k MAC
d -t 1.028769244 -s 3 -d -1 -p RTS -e 44 -c 2 -a 0 -i 0 -k MAC
d -t 1.029121244 -s 3 -d -1 -p RTS -e 44 -c 2 -a 0 -i 0 -k MAC
+ -t 1.029635244 -s 3 -d -1 -p ARP -e 86 -c 2 -a 0 -i 0 -k MAC 
- -t 1.029635244 -s 3 -d -1 -p ARP -e 86 -c 2 -a 0 -i 0 -k MAC
h -t 1.029635244 -s 3 -d -1 -p ARP -e 86 -c 2 -a 0 -i 0 -k MAC
r -t 1.030323577 -s 1 -d -1 -p ARP -e 28 -c 2 -a 0 -i 0 -k MAC
r -t 1.030323577 -s 0 -d -1 -p ARP -e 28 -c 2 -a 0 -i 0 -k MAC
r -t 1.030323715 -s 2 -d -1 -p ARP -e 28 -c 2 -a 0 -i 0 -k MAC
+ -t 1.031053715 -s 2 -d -1 -p RTS -e 44 -c 2 -a 0 -i 0 -k MAC 
- -t 1.031053715 -s 2 -d -1 -p RTS -e 44 -c 2 -a 0 -i 0 -k MAC
h -t 1.031053715 -s 2 -d -1 -p RTS -e 44 -c 2 -a 0 -i 0 -k MAC
r -t 1.031406186 -s 3 -d -1 -p RTS -e 44 -c 2 -a 0 -i 0 -k MAC
+ -t 1.031416186 -s 3 -d -1 -p CTS -e 38 -c 2 -a 0 -i 0 -k MAC 
- -t 1.031416186 -s 3 -d -1 -p CTS -e 38 -c 2 -a 0 -i 0 -k MAC
h -t 1.031416186 -s 3 -d -1 -p CTS -e 38 -c 2 -a 0 -i 0 -k MAC
r -t 1.031720658 -s 2 -d -1 -p CTS -e 38 -c 2 -a 0 -i 0 -k MAC
+ -t 1.031730658 -s 2 -d 3 -p cbr -e 594 -c 2 -a 0 -i 36 -k MAC 
- -t 1.031730658 -s 2 -d 3 -p cbr -e 594 -c 2 -a 0 -i 36 -k MAC
h -t 1.031730658 -s 2 -d 3 -p cbr -e 594 -c 2 -a 0 -i 36 -k MAC
+ -t 1.032000000 -s 0 -d -1 -p cbr -e 500 -c 2 -a 0 -i 49 -k AGT 
- -t 1.032000000 -s 0 -d -1 -p cbr -e 500 -c 2 -a 0 -i 49 -k AGT
h -t 1.032000000 -s 0 -d -1 -p cbr -e 500 -c 2 -a 0 -i 49 -k AGT
+ -t 1.032000000 -s 1 -d -1 -p cbr -e 500 -c 2 -a 0 -i 50 -k AGT 
- -t 1.032000000 -s 1 -d -1 -p cbr -e 500 -c 2 -a 0 -i 50 -k AGT
h -t 1.032000000 -s 1 -d -1 -p cbr -e 500 -c 2 -a 0 -i 50 -k AGT
+ -t 1.032000000 -s 2 -d -1 -p cbr -e 500 -c 2 -a 0 -i 51 -k AGT 
- -t 1.032000000 -s 2 -d -1 -p cbr -e 500 -c 2 -a 0 -i 51 -k AGT
h -t 1.032000000 -s 2 -d -1 -p cbr -e 500 -c 2 -a 0 -i 51 -k AGT
+ -t 1.032000000 -s 0 -d 3 -p cbr -e 520 -c 2 -a 0 -i 49 -k RTR 
- -t 1.032000000 -s 0 -d 3 -p cbr -e 520 -c 2 -a 0 -i 49 -k RTR
h -t 1.032000000 -s 0 -d 3 -p cbr -e 520 -c 2 -a 0 -i 49 -k RTR
+ -t 1.032000000 -s 1 -d 3 -p cbr -e 520 -c 2 -a 0 -i 50 -k RTR 
- -t 1.032000000 -s 1 -d 3 -p cbr -e 520 -c 2 -a 0 -i 50 -k RTR
h -t 1.032000000 -s 1 -d 3 -p cbr -e 520 -c 2 -a 0 -i 50 -k RTR
+ -t 1.032000000 -s 2 -d 3 -p cbr -e 520 -c 2 -a 0 -i 51 -k RTR 
- -t 1.032000000 -s 2 -d 3 -p cbr -e 520 -c 2 -a 0 -i 51 -k RTR
h -t 1.032000000 -s 2 -d 3 -p cbr -e 520 -c 2 -a 0 -i 51 -k RTR
+ -t 1.036000000 -s 0 -d -1 -p cbr -e 500 -c 2 -a 0 -i 52 -k AGT 
- -t 1.036000000 -s 0 -d -1 -p cbr -e 500 -c 2 -a 0 -i 52 -k AGT
h -t 1.036000000 -s 0 -d -1 -p cbr -e 500 -c 2 -a 0 -i 52 -k AGT
+ -t 1.036000000 -s 1 -d -1 -p cbr -e 500 -c 2 -a 0 -i 53 -k AGT 
- -t 1.036000000 -s 1 -d -1 -p cbr -e 500 -c 2 -a 0 -i 53 -k AGT
h -t 1.036000000 -s 1 -d -1 -p cbr -e 500 -c 2 -a 0 -i 53 -k AGT
+ -t 1.036000000 -s 2 -d -1 -p cbr -e 500 -c 2 -a 0 -i 54 -k AGT 
- -t 1.036000000 -s 2 -d -1 -p cbr -e 500 -c 2 -a 0 -i 54 -k AGT
h -t 1.036000000 -s 2 -d -1 -p cbr -e 500 -c 2 -a 0 -i 54 -k AGT
+ -t 1.036000000 -s 0 -d 3 -p cbr -e 520 -c 2 -a 0 -i 52 -k RTR 
- -t 1.036000000 -s 0 -d 3 -p cbr -e 520 -c 2 -a 0 -i 52 -k RTR
h -t 1.036000000 -s 0 -d 3 -p cbr -e 520 -c 2 -a 0 -i 52 -k RTR
+ -t 1.036000000 -s 1 -d 3 -p cbr -e 520 -c 2 -a 0 -i 53 -k RTR 
- -t 1.036000000 -s 1 -d 3 -p cbr -e 520 -c 2 -a 0 -i 53 -k RTR
h -t 1.036000000 -s 1 -d 3 -p cbr -e 520 -c 2 -a 0 -i 53 -k RTR
+ -t 1.036000000 -s 2 -d 3 -p cbr -e 520 -c 2 -a 0 -i 54 -k RTR 
- -t 1.036000000 -s 2 -d 3 -p cbr -e 520 -c 2 -a 0 -i 54 -k RTR
h -t 1.036000000 -s 2 -d 3 -p cbr -e 520 -c 2 -a 0 -i 54 -k RTR
r -t 1.036483129 -s 3 -d 3 -p cbr -e 536 -c 2 -a 0 -i 36 -k MAC
+ -t 1.036493129 -s 3 -d -1 -p ACK -e 38 -c 2 -a 0 -i 0 -k MAC 
- -t 1.036493129 -s 3 -d -1 -p ACK -e 38 -c 2 -a 0 -i 0 -k MAC
h -t 1.036493129 -s 3 -d -1 -p ACK -e 38 -c 2 -a 0 -i 0 -k MAC
r -t 1.036508129 -s 3 -d 3 -p cbr -e 500 -c 2 -a 0 -i 36 -k AGT
r -t 1.036797601 -s 2 -d -1 -p ACK -e 38 -c 2 -a 0 -i 0 -k MAC
+ -t 1.036927463 -s 0 -d -1 -p RTS -e 44 -c 2 -a 0 -i 0 -k MAC 
- -t 1.036927463 -s 0 -d -1 -p RTS -e 44 -c 2 -a 0 -i 0 -k MAC
h -t 1.036927463 -s 0 -d -1 -p RTS -e 44 -c 2 -a 0 -i 0 -k MAC
r -t 1.037279796 -s 3 -d -1 -p RTS -e 44 -c 2 -a 0 -i 0 -k MAC
+ -t 1.037289796 -s 3 -d -1 -p CTS -e 38 -c 2 -a 0 -i 0 -k MAC 
- -t 1.037289796 -s 3 -d -1 -p CTS -e 38 -c 2 -a 0 -i 0 -k MAC
h -t 1.037289796 -s 3 -d -1 -p CTS -e 38 -c 2 -a 0 -i 0 -k MAC
r -t 1.037594129 -s 0 -d -1 -p CTS -e 38 -c 2 -a 0 -i 0 -k MAC
+ -t 1.037604129 -s 0 -d 3 -p cbr -e 578 -c 2 -a 0 -i 40 -k MAC 
- -t 1.037604129 -s 0 -d 3 -p cbr -e 578 -c 2 -a 0 -i 40 -k MAC
h -t 1.037604129 -s 0 -d 3 -p cbr -e 578 -c 2 -a 0 -i 40 -k MAC
+ -t 1.040000000 -s 0 -d -1 -p cbr -e 500 -c 2 -a 0 -i 55 -k AGT 
- -t 1.040000000 -s 0 -d -1 -p cbr -e 500 -c 2 -a 0 -i 55 -k AGT
h -t 1.040000000 -s 0 -d -1 -p cbr -e 500 -c 2 -a 0 -i 55 -k AGT
+ -t 1.040000000 -s 1 -d -1 -p cbr -e 500 -c 2 -a 0 -i 56 -k AGT 
- -t 1.040000000 -s 1 -d -1 -p cbr -e 500 -c 2 -a 0 -i 56 -k AGT
h -t 1.040000000 -s 1 -d -1 -p cbr -e 500 -c 2 -a 0 -i 56 -k AGT
+ -t 1.040000000 -s 2 -d -1 -p cbr -e 500 -c 2 -a 0 -i 57 -k AGT 
- -t 1.040000000 -s 2 -d -1 -p cbr -e 500 -c 2 -a 0 -i 57 -k AGT
h -t 1.040000000 -s 2 -d -1 -p cbr -e 500 -c 2 -a 0 -i 57 -k AGT
+ -t 1.040000000 -s 0 -d 3 -p cbr -e 520 -c 2 -a 0 -i 55 -k RTR 
- -t 1.040000000 -s 0 -d 3 -p cbr -e 520 -c 2 -a 0 -i 55 -k RTR
h -t 1.040000000 -s 0 -d 3 -p cbr -e 520 -c 2 -a 0 -i 55 -k RTR
+ -t 1.040000000 -s 1 -d 3 -p cbr -e 520 -c 2 -a 0 -i 56 -k RTR 
- -t 1.040000000 -s 1 -d 3 -p cbr -e 520 -c 2 -a 0 -i 56 -k RTR
h -t 1.040000000 -s 1 -d 3 -p cbr -e 520 -c 2 -a 0 -i 56 -k RTR
+ -t 1.040000000 -s 2 -d 3 -p cbr -e 520 -c 2 -a 0 -i 57 -k RTR 
- -t 1.040000000 -s 2 -d 3 -p cbr -e 520 -c 2 -a 0 -i 57 -k RTR
h -t 1.040000000 -s 2 -d 3 -p cbr -e 520 -c 2 -a 0 -i 57 -k RTR
r -t 1.042228463 -s 3 -d 3 -p cbr -e 520 -c 2 -a 0 -i 40 -k MAC
+ -t 1.042238463 -s 3 -d -1 -p ACK -e 38 -c 2 -a 0 -i 0 -k MAC 
- -t 1.042238463 -s 3 -d -1 -p ACK -e 38 -c 2 -a 0 -i 0 -k MAC
h -t 1.042238463 -s 3 -d -1 -p ACK -e 38 -c 2 -a 0 -i 0 -k MAC
r -t 1.042253463 -s 3 -d 3 -p cbr -e 500 -c 2 -a 0 -i 40 -k AGT
r -t 1.042542796 -s 0 -d -1 -p ACK -e 38 -c 2 -a 0 -i 0 -k MAC
+ -t 1.042892796 -s 1 -d -1 -p RTS -e 44 -c 2 -a 0 -i 0 -k MAC 
- -t 1.042892796 -s 1 -d -1 -p RTS -e 44 -c 2 -a 0 -i 0 -k MAC
h -t 1.042892796 -s 1 -d -1 -p RTS -e 44 -c 2 -a 0 -i 0 -k MAC
+ -t 1.043084772 -s 0 -d 3 -p cbr -e 536 -c 2 -a 0 -i 7 -k RTR 
- -t 1.043084772 -s 0 -d 3 -p cbr -e 536 -c 2 -a 0 -i 7 -k RTR
h -t 1.043084772 -s 0 -d 3 -p cbr -e 536 -c 2 -a 0 -i 7 -k RTR
r -t 1.043245129 -s 3 -d -1 -p RTS -e 44 -c 2 -a 0 -i 0 -k MAC
+ -t 1.043255129 -s 3 -d -1 -p CTS -e 38 -c 2 -a 0 -i 0 -k MAC 
- -t 1.043255129 -s 3 -d -1 -p CTS -e 38 -c 2 -a 0 -i 0 -k MAC
h -t 1.043255129 -s 3 -d -1 -p CTS -e 38 -c 2 -a 0 -i 0 -k MAC
r -t 1.043559463 -s 1 -d -1 -p CTS -e 38 -c 2 -a 0 -i 0 -k MAC
+ -t 1.043569463 -s 1 -d 3 -p cbr -e 594 -c 2 -a 0 -i 2 -k MAC 
- -t 1.043569463 -s 1 -d 3 -p cbr -e 594 -c 2 -a 0 -i 2 -k MAC
h -t 1.043569463 -s 1 -d 3 -p cbr -e 594 -c 2 -a 0 -i 2 -k MAC
+ -t 1.044000000 -s 0 -d -1 -p cbr -e 500 -c 2 -a 0 -i 58 -k AGT 
- -t 1.044000000 -s 0 -d -1 -p cbr -e 500 -c 2 -a 0 -i 58 -k AGT
h -t 1.044000000 -s 0 -d -1 -p cbr -e 500 -c 2 -a 0 -i 58 -k AGT
+ -t 1.044000000 -s 1 -d -1 -p cbr -e 500 -c 2 -a 0 -i 59 -k AGT 
- -t 1.044000000 -s 1 -d -1 -p cbr -e 500 -c 2 -a 0 -i 59 -k AGT
h -t 1.044000000 -s 1 -d -1 -p cbr -e 500 -c 2 -a 0 -i 59 -k AGT
+ -t 1.044000000 -s 2 -d -1 -p cbr -e 500 -c 2 -a 0 -i 60 -k AGT 
- -t 1.044000000 -s 2 -d -1 -p cbr -e 500 -c 2 -a 0 -i 60 -k AGT
h -t 1.044000000 -s 2 -d -1 -p cbr -e 500 -c 2 -a 0 -i 60 -k AGT
+ -t 1.044000000 -s 0 -d 3 -p cbr -e 520 -c 2 -a 0 -i 58 -k RTR 
- -t 1.044000000 -s 0 -d 3 -p cbr -e 520 -c 2 -a 0 -i 58 -k RTR
h -t 1.044000000 -s 0 -d 3 -p cbr -e 520 -c 2 -a 0 -i 58 -k RTR
+ -t 1.044000000 -s 1 -d 3 -p cbr -e 520 -c 2 -a 0 -i 59 -k RTR 
- -t 1.044000000 -s 1 -d 3 -p cbr -e 520 -c 2 -a 0 -i 59 -k RTR
h -t 1.044000000 -s 1 -d 3 -p cbr -e 520 -c 2 -a 0 -i 59 -k RTR
+ -t 1.044000000 -s 2 -d 3 -p cbr -e 520 -c 2 -a 0 -i 60 -k RTR 
- -t 1.044000000 -s 2 -d 3 -p cbr -e 520 -c 2 -a 0 -i 60 -k RTR
h -t 1.044000000 -s 2 -d 3 -p cbr -e 520 -c 2 -a 0 -i 60 -k RTR
+ -t 1.044942105 -s 1 -d 3 -p cbr -e 536 -c 2 -a 0 -i 9 -k RTR 
- -t 1.044942105 -s 1 -d 3 -p cbr -e 536 -c 2 -a 0 -i 9 -k RTR
h -t 1.044942105 -s 1 -d 3 -p cbr -e 536 -c 2 -a 0 -i 9 -k RTR
+ -t 1.048000000 -s 0 -d -1 -p cbr -e 500 -c 2 -a 0 -i 61 -k AGT 
- -t 1.048000000 -s 0 -d -1 -p cbr -e 500 -c 2 -a 0 -i 61 -k AGT
h -t 1.048000000 -s 0 -d -1 -p cbr -e 500 -c 2 -a 0 -i 61 -k AGT
+ -t 1.048000000 -s 1 -d -1 -p cbr -e 500 -c 2 -a 0 -i 62 -k AGT 
- -t 1.048000000 -s 1 -d -1 -p cbr -e 500 -c 2 -a 0 -i 62 -k AGT
h -t 1.048000000 -s 1 -d -1 -p cbr -e 500 -c 2 -a 0 -i 62 -k AGT
+ -t 1.048000000 -s 2 -d -1 -p cbr -e 500 -c 2 -a 0 -i 63 -k AGT 
- -t 1.048000000 -s 2 -d -1 -p cbr -e 500 -c 2 -a 0 -i 63 -k AGT
h -t 1.048000000 -s 2 -d -1 -p cbr -e 500 -c 2 -a 0 -i 63 -k AGT
+ -t 1.048000000 -s 0 -d 3 -p cbr -e 520 -c 2 -a 0 -i 61 -k RTR 
- -t 1.048000000 -s 0 -d 3 -p cbr -e 520 -c 2 -a 0 -i 61 -k RTR
h -t 1.048000000 -s 0 -d 3 -p cbr -e 520 -c 2 -a 0 -i 61 -k RTR
+ -t 1.048000000 -s 1 -d 3 -p cbr -e 520 -c 2 -a 0 -i 62 -k RTR 
- -t 1.048000000 -s 1 -d 3 -p cbr -e 520 -c 2 -a 0 -i 62 -k RTR
h -t 1.048000000 -s 1 -d 3 -p cbr -e 520 -c 2 -a 0 -i 62 -k RTR
+ -t 1.048000000 -s 2 -d 3 -p cbr -e 520 -c 2 -a 0 -i 63 -k RTR 
- -t 1.048000000 -s 2 -d 3 -p cbr -e 520 -c 2 -a 0 -i 63 -k RTR
h -t 1.048000000 -s 2 -d 3 -p cbr -e 520 -c 2 -a 0 -i 63 -k RTR
r -t 1.048321796 -s 3 -d 3 -p cbr -e 536 -c 2 -a 0 -i 2 -k MAC
+ -t 1.048331796 -s 3 -d -1 -p ACK -e 38 -c 2 -a 0 -i 0 -k MAC 
- -t 1.048331796 -s 3 -d -1 -p ACK -e 38 -c 2 -a 0 -i 0 -k MAC
h -t 1.048331796 -s 3 -d -1 -p ACK -e 38 -c 2 -a 0 -i 0 -k MAC
r -t 1.048346796 -s 3 -d 3 -p cbr -e 500 -c 2 -a 0 -i 2 -k AGT
r -t 1.048636129 -s 1 -d -1 -p ACK -e 38 -c 2 -a 0 -i 0 -k MAC
+ -t 1.048706129 -s 0 -d -1 -p RTS -e 44 -c 2 -a 0 -i 0 -k MAC 
- -t 1.048706129 -s 0 -d -1 -p RTS -e 44 -c 2 -a 0 -i 0 -k MAC
h -t 1.048706129 -s 0 -d -1 -p RTS -e 44 -c 2 -a 0 -i 0 -k MAC
r -t 1.049058463 -s 3 -d -1 -p RTS -e 44 -c 2 -a 0 -i 0 -k MAC
+ -t 1.049068463 -s 3 -d -1 -p CTS -e 38 -c 2 -a 0 -i 0 -k MAC 
- -t 1.049068463 -s 3 -d -1 -p CTS -e 38 -c 2 -a 0 -i 0 -k MAC
h -t 1.049068463 -s 3 -d -1 -p CTS -e 38 -c 2 -a 0 -i 0 -k MAC
r -t 1.049372796 -s 0 -d -1 -p CTS -e 38 -c 2 -a 0 -i 0 -k MAC
+ -t 1.049382796 -s 0 -d 3 -p cbr -e 578 -c 2 -a 0 -i 43 -k MAC 
- -t 1.049382796 -s 0 -d 3 -p cbr -e 578 -c 2 -a 0 -i 43 -k MAC
h -t 1.049382796 -s 0 -d 3 -p cbr -e 578 -c 2 -a 0 -i 43 -k MAC
+ -t 1.052000000 -s 0 -d -1 -p cbr -e 500 -c 2 -a 0 -i 64 -k AGT 
- -t 1.052000000 -s 0 -d -1 -p cbr -e 500 -c 2 -a 0 -i 64 -k AGT
h -t 1.052000000 -s 0 -d -1 -p cbr -e 500 -c 2 -a 0 -i 64 -k AGT
+ -t 1.052000000 -s 1 -d -1 -p cbr -e 500 -c 2 -a 0 -i 65 -k AGT 
- -t 1.052000000 -s 1 -d -1 -p cbr -e 500 -c 2 -a 0 -i 65 -k AGT
h -t 1.052000000 -s 1 -d -1 -p cbr -e 500 -c 2 -a 0 -i 65 -k AGT
+ -t 1.052000000 -s 2 -d -1 -p cbr -e 500 -c 2 -a 0 -i 66 -k AGT 
- -t 1.052000000 -s 2 -d -1 -p cbr -e 500 -c 2 -a 0 -i 66 -k AGT
h -t 1.052000000 -s 2 -d -1 -p cbr -e 500 -c 2 -a 0 -i 66 -k AGT
+ -t 1.052000000 -s 0 -d 3 -p cbr -e 520 -c 2 -a 0 -i 64 -k RTR 
- -t 1.052000000 -s 0 -d 3 -p cbr -e 520 -c 2 -a 0 -i 64 -k RTR
h -t 1.052000000 -s 0 -d 3 -p cbr -e 520 -c 2 -a 0 -i 64 -k RTR
+ -t 1.052000000 -s 1 -d 3 -p cbr -e 520 -c 2 -a 0 -i 65 -k RTR 
- -t 1.052000000 -s 1 -d 3 -p cbr -e 520 -c 2 -a 0 -i 65 -k RTR
h -t 1.052000000 -s 1 -d 3 -p cbr -e 520 -c 2 -a 0 -i 65 -k RTR