s 0.005090888 _0_ RTR  --- 0 message 32 [0 0 0 0] ------- [0:255 -1:255 32 0] 
s 0.005325888 _0_ MAC  --- 0 message 90 [0 ffffffff 0 800] ------- [0:255 -1:255 32 0] 
r 0.006045922 _2_ MAC  --- 0 message 32 [0 ffffffff 0 800] ------- [0:255 -1:255 32 0] 
r 0.006045922 _1_ MAC  --- 0 message 32 [0 ffffffff 0 800] ------- [0:255 -1:255 32 0] 
r 0.006045935 _3_ MAC  --- 0 message 32 [0 ffffffff 0 800] ------- [0:255 -1:255 32 0] 
r 0.006070922 _2_ RTR  --- 0 message 32 [0 ffffffff 0 800] ------- [0:255 -1:255 32 0] 
r 0.006070922 _1_ RTR  --- 0 message 32 [0 ffffffff 0 800] ------- [0:255 -1:255 32 0] 
r 0.006070935 _3_ RTR  --- 0 message 32 [0 ffffffff 0 800] ------- [0:255 -1:255 32 0] 
s 0.030755339 _2_ RTR  --- 1 message 32 [0 0 0 0] ------- [2:255 -1:255 32 0] 
s 0.031090339 _2_ MAC  --- 1 message 90 [0 ffffffff 2 800] ------- [2:255 -1:255 32 0] 
r 0.031810372 _0_ MAC  --- 1 message 32 [0 ffffffff 2 800] ------- [2:255 -1:255 32 0] 
r 0.031810372 _3_ MAC  --- 1 message 32 [0 ffffffff 2 800] ------- [2:255 -1:255 32 0] 
r 0.031810386 _1_ MAC  --- 1 message 32 [0 ffffffff 2 800] ------- [2:255 -1:255 32 0] 
r 0.031835372 _0_ RTR  --- 1 message 32 [0 ffffffff 2 800] ------- [2:255 -1:255 32 0] 
r 0.031835372 _3_ RTR  --- 1 message 32 [0 ffffffff 2 800] ------- [2:255 -1:255 32 0] 
r 0.031835386 _1_ RTR  --- 1 message 32 [0 ffffffff 2 800] ------- [2:255 -1:255 32 0] 
s 0.177886797 _3_ RTR  --- 2 message 32 [0 0 0 0] ------- [3:255 -1:255 32 0] 
s 0.178121797 _3_ MAC  --- 2 message 90 [0 ffffffff 3 800] ------- [3:255 -1:255 32 0] 
r 0.178841830 _1_ MAC  --- 2 message 32 [0 ffffffff 3 800] ------- [3:255 -1:255 32 0] 
r 0.178841830 _2_ MAC  --- 2 message 32 [0 ffffffff 3 800] ------- [3:255 -1:255 32 0] 
r 0.178841844 _0_ MAC  --- 2 message 32 [0 ffffffff 3 800] ------- [3:255 -1:255 32 0] 
r 0.178866830 _1_ RTR  --- 2 message 32 [0 ffffffff 3 800] ------- [3:255 -1:255 32 0] 
r 0.178866830 _2_ RTR  --- 2 message 32 [0 ffffffff 3 800] ------- [3:255 -1:255 32 0] 
r 0.178866844 _0_ RTR  --- 2 message 32 [0 ffffffff 3 800] ------- [3:255 -1:255 32 0] 
s 1.120358709 _1_ RTR  --- 3 message 32 [0 0 0 0] ------- [1:255 -1:255 32 0] 
s 1.120913709 _1_ MAC  --- 3 message 90 [0 ffffffff 1 800] ------- [1:255 -1:255 32 0] 
r 1.121633742 _0_ MAC  --- 3 message 32 [0 ffffffff 1 800] ------- [1:255 -1:255 32 0] 
r 1.121633742 _3_ MAC  --- 3 message 32 [0 ffffffff 1 800] ------- [1:255 -1:255 32 0] 
r 1.121633756 _2_ MAC  --- 3 message 32 [0 ffffffff 1 800] ------- [1:255 -1:255 32 0] 
r 1.121658742 _0_ RTR  --- 3 message 32 [0 ffffffff 1 800] ------- [1:255 -1:255 32 0] 
r 1.121658742 _3_ RTR  --- 3 message 32 [0 ffffffff 1 800] ------- [1:255 -1:255 32 0] 
r 1.121658756 _2_ RTR  --- 3 message 32 [0 ffffffff 1 800] ------- [1:255 -1:255 32 0] 
s 11.216401477 _3_ AGT  --- 4 pareto 500 [0 0 0 0] ------- [3:0 2:1 32 0] 
r 11.216401477 _3_ RTR  --- 4 pareto 500 [0 0 0 0] ------- [3:0 2:1 32 0] 
s 11.216401477 _3_ RTR  --- 4 pareto 520 [0 0 0 0] ------- [3:0 2:1 32 2] 
s 11.216856477 _3_ MAC  --- 0 ARP 86 [0 ffffffff 3 806] ------- [REQUEST 3/3 0/2]
r 11.217544510 _1_ MAC  --- 0 ARP 28 [0 ffffffff 3 806] ------- [REQUEST 3/3 0/2]
r 11.217544510 _2_ MAC  --- 0 ARP 28 [0 ffffffff 3 806] ------- [REQUEST 3/3 0/2]
r 11.217544524 _0_ MAC  --- 0 ARP 28 [0 ffffffff 3 806] ------- [REQUEST 3/3 0/2]
s 11.217959510 _2_ MAC  --- 0 RTS 44 [52e 3 2 0] 
r 11.218311543 _3_ MAC  --- 0 RTS 44 [52e 3 2 0] 
s 11.218321543 _3_ MAC  --- 0 CTS 38 [3f4 2 0 0] 
r 11.218625577 _2_ MAC  --- 0 CTS 38 [3f4 2 0 0] 
s 11.218635577 _2_ MAC  --- 0 ARP 86 [13a 3 2 806] ------- [REPLY 2/2 3/3]
r 11.219323610 _3_ MAC  --- 0 ARP 28 [13a 3 2 806] ------- [REPLY 2/2 3/3]
s 11.219333610 _3_ MAC  --- 0 ACK 38 [0 2 0 0] 
r 11.219637643 _2_ MAC  --- 0 ACK 38 [0 2 0 0] 
s 11.219867610 _3_ MAC  --- 0 RTS 44 [148e 2 3 0] 
r 11.220219643 _2_ MAC  --- 0 RTS 44 [148e 2 3 0] 
s 11.220229643 _2_ MAC  --- 0 CTS 38 [1354 3 0 0] 
s 11.220401477 _3_ AGT  --- 5 pareto 500 [0 0 0 0] ------- [3:0 2:1 32 0] 
r 11.220401477 _3_ RTR  --- 5 pareto 500 [0 0 0 0] ------- [3:0 2:1 32 0] 
s 11.220401477 _3_ RTR  --- 5 pareto 520 [0 0 0 0] ------- [3:0 2:1 32 2] 
r 11.220533677 _3_ MAC  --- 0 CTS 38 [1354 3 0 0] 
s 11.220543677 _3_ MAC  --- 4 pareto 578 [13a 2 3 800] ------- [3:0 2:1 32 2] 
s 11.224401477 _3_ AGT  --- 6 pareto 500 [0 0 0 0] ------- [3:0 2:1 32 0] 
r 11.224401477 _3_ RTR  --- 6 pareto 500 [0 0 0 0] ------- [3:0 2:1 32 0] 
s 11.224401477 _3_ RTR  --- 6 pareto 520 [0 0 0 0] ------- [3:0 2:1 32 2] 
r 11.225167710 _2_ MAC  --- 4 pareto 520 [13a 2 3 800] ------- [3:0 2:1 32 2] 
s 11.225177710 _2_ MAC  --- 0 ACK 38 [0 3 0 0] 
r 11.225192710 _2_ AGT  --- 4 pareto 520 [13a 2 3 800] ------- [3:0 2:1 32 2] 
r 11.225481743 _3_ MAC  --- 0 ACK 38 [0 3 0 0] 
s 11.225831743 _3_ MAC  --- 0 RTS 44 [148e 2 3 0] 
r 11.226183777 _2_ MAC  --- 0 RTS 44 [148e 2 3 0] 
s 11.226193777 _2_ MAC  --- 0 CTS 38 [1354 3 0 0] 
r 11.226497810 _3_ MAC  --- 0 CTS 38 [1354 3 0 0] 
s 11.226507810 _3_ MAC  --- 5 pareto 578 [13a 2 3 800] ------- [3:0 2:1 32 2] 
s 11.228401477 _3_ AGT  --- 7 pareto 500 [0 0 0 0] ------- [3:0 2:1 32 0] 
r 11.228401477 _3_ RTR  --- 7 pareto 500 [0 0 0 0] ------- [3:0 2:1 32 0] 
s 11.228401477 _3_ RTR  --- 7 pareto 520 [0 0 0 0] ------- [3:0 2:1 32 2] 
r 11.231131843 _2_ MAC  --- 5 pareto 520 [13a 2 3 800] ------- [3:0 2:1 32 2] 
s 11.231141843 _2_ MAC  --- 0 ACK 38 [0 3 0 0] 
r 11.231156843 _2_ AGT  --- 5 pareto 520 [13a 2 3 800] ------- [3:0 2:1 32 2] 
r 11.231445877 _3_ MAC  --- 0 ACK 38 [0 3 0 0] 
s 11.231855877 _3_ MAC  --- 0 RTS 44 [148e 2 3 0] 
r 11.232207910 _2_ MAC  --- 0 RTS 44 [148e 2 3 0] 
s 11.232217910 _2_ MAC  --- 0 CTS 38 [1354 3 0 0] 
s 11.232401477 _3_ AGT  --- 8 pareto 500 [0 0 0 0] ------- [3:0 2:1 32 0] 
r 11.232401477 _3_ RTR  --- 8 pareto 500 [0 0 0 0] ------- [3:0 2:1 32 0] 
s 11.232401477 _3_ RTR  --- 8 pareto 520 [0 0 0 0] ------- [3:0 2:1 32 2] 
r 11.232521943 _3_ MAC  --- 0 CTS 38 [1354 3 0 0] 
s 11.232531943 _3_ MAC  --- 6 pareto 578 [13a 2 3 800] ------- [3:0 2:1 32 2] 
s 11.236401477 _3_ AGT  --- 9 pareto 500 [0 0 0 0] ------- [3:0 2:1 32 0] 
r 11.236401477 _3_ RTR  --- 9 pareto 500 [0 0 0 0] ------- [3:0 2:1 32 0] 
s 11.236401477 _3_ RTR  --- 9 pareto 520 [0 0 0 0] ------- [3:0 2:1 32 2] 
r 11.237155977 _2_ MAC  --- 6 pareto 520 [13a 2 3 800] ------- [3:0 2:1 32 2] 
s 11.237165977 _2_ MAC  --- 0 ACK 38 [0 3 0 0] 
r 11.237180977 _2_ AGT  --- 6 pareto 520 [13a 2 3 800] ------- [3:0 2:1 32 2] 
r 11.237470010 _3_ MAC  --- 0 ACK 38 [0 3 0 0] 
s 11.237660010 _3_ MAC  --- 0 RTS 44 [148e 2 3 0] 
r 11.238012043 _2_ MAC  --- 0 RTS 44 [148e 2 3 0] 
s 11.238022043 _2_ MAC  --- 0 CTS 38 [1354 3 0 0] 
r 11.238326077 _3_ MAC  --- 0 CTS 38 [1354 3 0 0] 
s 11.238336077 _3_ MAC  --- 7 pareto 578 [13a 2 3 800] ------- [3:0 2:1 32 2] 
s 11.240401477 _3_ AGT  --- 10 pareto 500 [0 0 0 0] ------- [3:0 2:1 32 0] 
r 11.240401477 _3_ RTR  --- 10 pareto 500 [0 0 0 0] ------- [3:0 2:1 32 0] 
s 11.240401477 _3_ RTR  --- 10 pareto 520 [0 0 0 0] ------- [3:0 2:1 32 2] 
r 11.242960110 _2_ MAC  --- 7 pareto 520 [13a 2 3 800] ------- [3:0 2:1 32 2] 
s 11.242970110 _2_ MAC  --- 0 ACK 38 [0 3 0 0] 
r 11.242985110 _2_ AGT  --- 7 pareto 520 [13a 2 3 800] ------- [3:0 2:1 32 2] 
r 11.243274143 _3_ MAC  --- 0 ACK 38 [0 3 0 0] 
s 11.243404143 _3_ MAC  --- 0 RTS 44 [148e 2 3 0] 
r 11.243756177 _2_ MAC  --- 0 RTS 44 [148e 2 3 0] 
s 11.243766177 _2_ MAC  --- 0 CTS 38 [1354 3 0 0] 
r 11.244070210 _3_ MAC  --- 0 CTS 38 [1354 3 0 0] 
s 11.244080210 _3_ MAC  --- 8 pareto 578 [13a 2 3 800] ------- [3:0 2:1 32 2] 
s 11.244401477 _3_ AGT  --- 11 pareto 500 [0 0 0 0] ------- [3:0 2:1 32 0] 
r 11.244401477 _3_ RTR  --- 11 pareto 500 [0 0 0 0] ------- [3:0 2:1 32 0] 
s 11.244401477 _3_ RTR  --- 11 pareto 520 [0 0 0 0] ------- [3:0 2:1 32 2] 
s 11.248401477 _3_ AGT  --- 12 pareto 500 [0 0 0 0] ------- [3:0 2:1 32 0] 
r 11.248401477 _3_ RTR  --- 12 pareto 500 [0 0 0 0] ------- [3:0 2:1 32 0] 
s 11.248401477 _3_ RTR  --- 12 pareto 520 [0 0 0 0] ------- [3:0 2:1 32 2] 
r 11.248704243 _2_ MAC  --- 8 pareto 520 [13a 2 3 800] ------- [3:0 2:1 32 2] 
s 11.248714243 _2_ MAC  --- 0 ACK 38 [0 3 0 0] 
r 11.248729243 _2_ AGT  --- 8 pareto 520 [13a 2 3 800] ------- [3:0 2:1 32 2] 
r 11.249018277 _3_ MAC  --- 0 ACK 38 [0 3 0 0] 
s 11.249348277 _3_ MAC  --- 0 RTS 44 [148e 2 3 0] 
r 11.249700310 _2_ MAC  --- 0 RTS 44 [148e 2 3 0] 
s 11.249710310 _2_ MAC  --- 0 CTS 38 [1354 3 0 0] 
r 11.250014343 _3_ MAC  --- 0 CTS 38 [1354 3 0 0] 
s 11.250024343 _3_ MAC  --- 9 pareto 578 [13a 2 3 800] ------- [3:0 2:1 32 2] 
s 11.252401477 _3_ AGT  --- 13 pareto 500 [0 0 0 0] ------- [3:0 2:1 32 0] 
r 11.252401477 _3_ RTR  --- 13 pareto 500 [0 0 0 0] ------- [3:0 2:1 32 0] 
s 11.252401477 _3_ RTR  --- 13 pareto 520 [0 0 0 0] ------- [3:0 2:1 32 2] 
r 11.254648377 _2_ MAC  --- 9 pareto 520 [13a 2 3 800] ------- [3:0 2:1 32 2] 
s 11.254658377 _2_ MAC  --- 0 ACK 38 [0 3 0 0] 
r 11.254673377 _2_ AGT  --- 9 pareto 520 [13a 2 3 800] ------- [3:0 2:1 32 2] 
r 11.254962410 _3_ MAC  --- 0 ACK 38 [0 3 0 0] 
s 11.255212410 _3_ MAC  --- 0 RTS 44 [148e 2 3 0] 
r 11.255564443 _2_ MAC  --- 0 RTS 44 [148e 2 3 0] 
s 11.255574443 _2_ MAC  --- 0 CTS 38 [1354 3 0 0] 
r 11.255878477 _3_ MAC  --- 0 CTS 38 [1354 3 0 0] 
s 11.255888477 _3_ MAC  --- 10 pareto 578 [13a 2 3 800] ------- [3:0 2:1 32 2] 
s 11.256401477 _3_ AGT  --- 14 pareto 500 [0 0 0 0] ------- [3:0 2:1 32 0] 
r 11.256401477 _3_ RTR  --- 14 pareto 500 [0 0 0 0] ------- [3:0 2:1 32 0] 
s 11.256401477 _3_ RTR  --- 14 pareto 520 [0 0 0 0] ------- [3:0 2:1 32 2] 
s 11.260401477 _3_ AGT  --- 15 pareto 500 [0 0 0 0] ------- [3:0 2:1 32 0] 
r 11.260401477 _3_ RTR  --- 15 pareto 500 [0 0 0 0] ------- [3:0 2:1 32 0] 
s 11.260401477 _3_ RTR  --- 15 pareto 520 [0 0 0 0] ------- [3:0 2:1 32 2] 
r 11.260512510 _2_ MAC  --- 10 pareto 520 [13a 2 3 800] ------- [3:0 2:1 32 2] 
s 11.260522510 _2_ MAC  --- 0 ACK 38 [0 3 0 0] 
r 11.260537510 _2_ AGT  --- 10 pareto 520 [13a 2 3 800] ------- [3:0 2:1 32 2] 
r 11.260826543 _3_ MAC  --- 0 ACK 38 [0 3 0 0] 
s 11.260976543 _3_ MAC  --- 0 RTS 44 [148e 2 3 0] 
r 11.261328577 _2_ MAC  --- 0 RTS 44 [148e 2 3 0] 
s 11.261338577 _2_ MAC  --- 0 CTS 38 [1354 3 0 0] 
r 11.261642610 _3_ MAC  --- 0 CTS 38 [1354 3 0 0] 
s 11.261652610 _3_ MAC  --- 11 pareto 578 [13a 2 3 800] ------- [3:0 2:1 32 2] 
s 11.264401477 _3_ AGT  --- 16 pareto 500 [0 0 0 0] ------- [3:0 2:1 32 0] 
r 11.264401477 _3_ RTR  --- 16 pareto 500 [0 0 0 0] ------- [3:0 2:1 32 0] 
s 11.264401477 _3_ RTR  --- 16 pareto 520 [0 0 0 0] ------- [3:0 2:1 32 2] 
r 11.266276643 _2_ MAC  --- 11 pareto 520 [13a 2 3 800] ------- [3:0 2:1 32 2] 
s 11.266286643 _2_ MAC  --- 0 ACK 38 [0 3 0 0] 
r 11.266301643 _2_ AGT  --- 11 pareto 520 [13a 2 3 800] ------- [3:0 2:1 32 2] 
r 11.266590677 _3_ MAC  --- 0 ACK 38 [0 3 0 0] 
s 11.267160677 _3_ MAC  --- 0 RTS 44 [148e 2 3 0] 
r 11.267512710 _2_ MAC  --- 0 RTS 44 [148e 2 3 0] 
s 11.267522710 _2_ MAC  --- 0 CTS 38 [1354 3 0 0] 
r 11.267826743 _3_ MAC  --- 0 CTS 38 [1354 3 0 0] 
s 11.267836743 _3_ MAC  --- 12 pareto 578 [13a 2 3 800] ------- [3:0 2:1 32 2] 
s 11.268401477 _3_ AGT  --- 17 pareto 500 [0 0 0 0] ------- [3:0 2:1 32 0] 
r 11.268401477 _3_ RTR  --- 17 pareto 500 [0 0 0 0] ------- [3:0 2:1 32 0] 
s 11.268401477 _3_ RTR  --- 17 pareto 520 [0 0 0 0] ------- [3:0 2:1 32 2] 
s 11.272401477 _3_ AGT  --- 18 pareto 500 [0 0 0 0] ------- [3:0 2:1 32 0] 
r 11.272401477 _3_ RTR  --- 18 pareto 500 [0 0 0 0] ------- [3:0 2:1 32 0] 
s 11.272401477 _3_ RTR  --- 18 pareto 520 [0 0 0 0] ------- [3:0 2:1 32 2] 
r 11.272460777 _2_ MAC  --- 12 pareto 520 [13a 2 3 800] ------- [3:0 2:1 32 2] 
s 11.272470777 _2_ MAC  --- 0 ACK 38 [0 3 0 0] 
r 11.272485777 _2_ AGT  --- 12 pareto 520 [13a 2 3 800] ------- [3:0 2:1 32 2] 
r 11.272774810 _3_ MAC  --- 0 ACK 38 [0 3 0 0] 
s 11.273044810 _3_ MAC  --- 0 RTS 44 [148e 2 3 0] 
r 11.273396843 _2_ MAC  --- 0 RTS 44 [148e 2 3 0] 
s 11.273406843 _2_ MAC  --- 0 CTS 38 [1354 3 0 0] 
r 11.273710877 _3_ MAC  --- 0 CTS 38 [1354 3 0 0] 
s 11.273720877 _3_ MAC  --- 13 pareto 578 [13a 2 3 800] ------- [3:0 2:1 32 2] 
s 11.276401477 _3_ AGT  --- 19 pareto 500 [0 0 0 0] ------- [3:0 2:1 32 0] 
r 11.276401477 _3_ RTR  --- 19 pareto 500 [0 0 0 0] ------- [3:0 2:1 32 0] 
s 11.276401477 _3_ RTR  --- 19 pareto 520 [0 0 0 0] ------- [3:0 2:1 32 2] 
r 11.278344910 _2_ MAC  --- 13 pareto 520 [13a 2 3 800] ------- [3:0 2:1 32 2] 
s 11.278354910 _2_ MAC  --- 0 ACK 38 [0 3 0 0] 
r 11.278369910 _2_ AGT  --- 13 pareto 520 [13a 2 3 800] ------- [3:0 2:1 32 2] 
r 11.278658943 _3_ MAC  --- 0 ACK 38 [0 3 0 0] 
s 11.278908943 _3_ MAC  --- 0 RTS 44 [148e 2 3 0] 
r 11.279260977 _2_ MAC  --- 0 RTS 44 [148e 2 3 0] 
s 11.279270977 _2_ MAC  --- 0 CTS 38 [1354 3 0 0] 
r 11.279575010 _3_ MAC  --- 0 CTS 38 [1354 3 0 0] 
s 11.279585010 _3_ MAC  --- 14 pareto 578 [13a 2 3 800] ------- [3:0 2:1 32 2] 
s 11.280401477 _3_ AGT  --- 20 pareto 500 [0 0 0 0] ------- [3:0 2:1 32 0] 
r 11.280401477 _3_ RTR  --- 20 pareto 500 [0 0 0 0] ------- [3:0 2:1 32 0] 
s 11.280401477 _3_ RTR  --- 20 pareto 520 [0 0 0 0] ------- [3:0 2:1 32 2] 
r 11.284209043 _2_ MAC  --- 14 pareto 520 [13a 2 3 800] ------- [3:0 2:1 32 2] 
s 11.284219043 _2_ MAC  --- 0 ACK 38 [0 3 0 0] 
r 11.284234043 _2_ AGT  --- 14 pareto 520 [13a 2 3 800] ------- [3:0 2:1 32 2] 
s 11.284401477 _3_ AGT  --- 21 pareto 500 [0 0 0 0] ------- [3:0 2:1 32 0] 
r 11.284401477 _3_ RTR  --- 21 pareto 500 [0 0 0 0] ------- [3:0 2:1 32 0] 
s 11.284401477 _3_ RTR  --- 21 pareto 520 [0 0 0 0] ------- [3:0 2:1 32 2] 
r 11.284523077 _3_ MAC  --- 0 ACK 38 [0 3 0 0] 
s 11.285153077 _3_ MAC  --- 0 RTS 44 [148e 2 3 0] 
r 11.285505110 _2_ MAC  --- 0 RTS 44 [148e 2 3 0] 
s 11.285515110 _2_ MAC  --- 0 CTS 38 [1354 3 0 0] 
r 11.285819143 _3_ MAC  --- 0 CTS 38 [1354 3 0 0] 
s 11.285829143 _3_ MAC  --- 15 pareto 578 [13a 2 3 800] ------- [3:0 2:1 32 2] 
s 11.288401477 _3_ AGT  --- 22 pareto 500 [0 0 0 0] ------- [3:0 2:1 32 0] 
r 11.288401477 _3_ RTR  --- 22 pareto 500 [0 0 0 0] ------- [3:0 2:1 32 0] 
s 11.288401477 _3_ RTR  --- 22 pareto 520 [0 0 0 0] ------- [3:0 2:1 32 2] 
r 11.290453177 _2_ MAC  --- 15 pareto 520 [13a 2 3 800] ------- [3:0 2:1 32 2] 
s 11.290463177 _2_ MAC  --- 0 ACK 38 [0 3 0 0] 
r 11.290478177 _2_ AGT  --- 15 pareto 520 [13a 2 3 800] ------- [3:0 2:1 32 2] 
r 11.290767210 _3_ MAC  --- 0 ACK 38 [0 3 0 0] 
s 11.290877210 _3_ MAC  --- 0 RTS 44 [148e 2 3 0] 
r 11.291229243 _2_ MAC  --- 0 RTS 44 [148e 2 3 0] 
s 11.291239243 _2_ MAC  --- 0 CTS 38 [1354 3 0 0] 
r 11.291543277 _3_ MAC  --- 0 CTS 38 [1354 3 0 0] 
s 11.291553277 _3_ MAC  --- 16 pareto 578 [13a 2 3 800] ------- [3:0 2:1 32 2] 
s 11.292401477 _3_ AGT  --- 23 pareto 500 [0 0 0 0] ------- [3:0 2:1 32 0] 
r 11.292401477 _3_ RTR  --- 23 pareto 500 [0 0 0 0] ------- [3:0 2:1 32 0] 
s 11.292401477 _3_ RTR  --- 23 pareto 520 [0 0 0 0] ------- [3:0 2:1 32 2] 
r 11.296177310 _2_ MAC  --- 16 pareto 520 [13a 2 3 800] ------- [3:0 2:1 32 2] 
s 11.296187310 _2_ MAC  --- 0 ACK 38 [0 3 0 0] 
r 11.296202310 _2_ AGT  --- 16 pareto 520 [13a 2 3 800] ------- [3:0 2:1 32 2] 
s 11.296401477 _3_ AGT  --- 24 pareto 500 [0 0 0 0] ------- [3:0 2:1 32 0] 
r 11.296401477 _3_ RTR  --- 24 pareto 500 [0 0 0 0] ------- [3:0 2:1 32 0] 
s 11.296401477 _3_ RTR  --- 24 pareto 520 [0 0 0 0] ------- [3:0 2:1 32 2] 
r 11.296491343 _3_ MAC  --- 0 ACK 38 [0 3 0 0] 
s 11.296661343 _3_ MAC  --- 0 RTS 44 [148e 2 3 0] 
r 11.297013377 _2_ MAC  --- 0 RTS 44 [148e 2 3 0] 
s 11.297023377 _2_ MAC  --- 0 CTS 38 [1354 3 0 0] 
r 11.297327410 _3_ MAC  --- 0 CTS 38 [1354 3 0 0] 
s 11.297337410 _3_ MAC  --- 17 pareto 578 [13a 2 3 800] ------- [3:0 2:1 32 2] 
s 11.300401477 _3_ AGT  --- 25 pareto 500 [0 0 0 0] ------- [3:0 2:1 32 0] 
r 11.300401477 _3_ RTR  --- 25 pareto 500 [0 0 0 0] ------- [3:0 2:1 32 0] 
s 11.300401477 _3_ RTR  --- 25 pareto 520 [0 0 0 0] ------- [3:0 2:1 32 2] 
r 11.301961443 _2_ MAC  --- 17 pareto 520 [13a 2 3 800] ------- [3:0 2:1 32 2] 
s 11.301971443 _2_ MAC  --- 0 ACK 38 [0 3 0 0] 
r 11.301986443 _2_ AGT  --- 17 pareto 520 [13a 2 3 800] ------- [3:0 2:1 32 2] 
r 11.302275477 _3_ MAC  --- 0 ACK 38 [0 3 0 0] 
s 11.302665477 _3_ MAC  --- 0 RTS 44 [148e 2 3 0] 
r 11.303017510 _2_ MAC  --- 0 RTS 44 [148e 2 3 0] 
s 11.303027510 _2_ MAC  --- 0 CTS 38 [1354 3 0 0] 
r 11.303331543 _3_ MAC  --- 0 CTS 38 [1354 3 0 0] 
s 11.303341543 _3_ MAC  --- 18 pareto 578 [13a 2 3 800] ------- [3:0 2:1 32 2] 
s 11.304401477 _3_ AGT  --- 26 pareto 500 [0 0 0 0] ------- [3:0 2:1 32 0] 
r 11.304401477 _3_ RTR  --- 26 pareto 500 [0 0 0 0] ------- [3:0 2:1 32 0] 
s 11.304401477 _3_ RTR  --- 26 pareto 520 [0 0 0 0] ------- [3:0 2:1 32 2] 
r 11.307965577 _2_ MAC  --- 18 pareto 520 [13a 2 3 800] ------- [3:0 2:1 32 2] 
s 11.307975577 _2_ MAC  --- 0 ACK 38 [0 3 0 0] 
r 11.307990577 _2_ AGT  --- 18 pareto 520 [13a 2 3 800] ------- [3:0 2:1 32 2] 
r 11.308279610 _3_ MAC  --- 0 ACK 38 [0 3 0 0] 
s 11.308401477 _3_ AGT  --- 27 pareto 500 [0 0 0 0] ------- [3:0 2:1 32 0] 
r 11.308401477 _3_ RTR  --- 27 pareto 500 [0 0 0 0] ------- [3:0 2:1 32 0] 
s 11.308401477 _3_ RTR  --- 27 pareto 520 [0 0 0 0] ------- [3:0 2:1 32 2] 
s 11.308829610 _3_ MAC  --- 0 RTS 44 [148e 2 3 0] 
r 11.309181643 _2_ MAC  --- 0 RTS 44 [148e 2 3 0] 
s 11.309191643 _2_ MAC  --- 0 CTS 38 [1354 3 0 0] 
r 11.309495677 _3_ MAC  --- 0 CTS 38 [1354 3 0 0] 
s 11.309505677 _3_ MAC  --- 19 pareto 578 [13a 2 3 800] ------- [3:0 2:1 32 2] 
s 11.309638016 _2_ AGT  --- 28 pareto 500 [0 0 0 0] ------- [2:0 2:1 32 0] 
r 11.309638016 _2_ AGT  --- 28 pareto 500 [0 0 0 0] ------- [2:0 2:1 32 0] 
s 11.312401477 _3_ AGT  --- 29 pareto 500 [0 0 0 0] ------- [3:0 2:1 32 0] 
r 11.312401477 _3_ RTR  --- 29 pareto 500 [0 0 0 0] ------- [3:0 2:1 32 0] 
s 11.312401477 _3_ RTR  --- 29 pareto 520 [0 0 0 0] ------- [3:0 2:1 32 2] 
s 11.313638016 _2_ AGT  --- 30 pareto 500 [0 0 0 0] ------- [2:0 2:1 32 0] 
r 11.313638016 _2_ AGT  --- 30 pareto 500 [0 0 0 0] ------- [2:0 2:1 32 0] 
r 11.314129710 _2_ MAC  --- 19 pareto 520 [13a 2 3 800] ------- [3:0 2:1 32 2] 
s 11.314139710 _2_ MAC  --- 0 ACK 38 [0 3 0 0] 
r 11.314154710 _2_ AGT  --- 19 pareto 520 [13a 2 3 800] ------- [3:0 2:1 32 2] 
r 11.314443743 _3_ MAC  --- 0 ACK 38 [0 3 0 0] 
s 11.314773743 _3_ MAC  --- 0 RTS 44 [148e 2 3 0] 
r 11.315125777 _2_ MAC  --- 0 RTS 44 [148e 2 3 0] 
s 11.315135777 _2_ MAC  --- 0 CTS 38 [1354 3 0 0] 
r 11.315439810 _3_ MAC  --- 0 CTS 38 [1354 3 0 0] 
s 11.315449810 _3_ MAC  --- 20 pareto 578 [13a 2 3 800] ------- [3:0 2:1 32 2] 
s 11.316401477 _3_ AGT  --- 31 pareto 500 [0 0 0 0] ------- [3:0 2:1 32 0] 
r 11.316401477 _3_ RTR  --- 31 pareto 500 [0 0 0 0] ------- [3:0 2:1 32 0] 
s 11.316401477 _3_ RTR  --- 31 pareto 520 [0 0 0 0] ------- [3:0 2:1 32 2] 
s 11.317638016 _2_ AGT  --- 32 pareto 500 [0 0 0 0] ------- [2:0 2:1 32 0] 
r 11.317638016 _2_ AGT  --- 32 pareto 500 [0 0 0 0] ------- [2:0 2:1 32 0] 
r 11.320073843 _2_ MAC  --- 20 pareto 520 [13a 2 3 800] ------- [3:0 2:1 32 2] 
s 11.320083843 _2_ MAC  --- 0 ACK 38 [0 3 0 0] 
r 11.320098843 _2_ AGT  --- 20 pareto 520 [13a 2 3 800] ------- [3:0 2:1 32 2] 
r 11.320387877 _3_ MAC  --- 0 ACK 38 [0 3 0 0] 
s 11.320401477 _3_ AGT  --- 33 pareto 500 [0 0 0 0] ------- [3:0 2:1 32 0] 
r 11.320401477 _3_ RTR  --- 33 pareto 500 [0 0 0 0] ------- [3:0 2:1 32 0] 
s 11.320401477 _3_ RTR  --- 33 pareto 520 [0 0 0 0] ------- [3:0 2:1 32 2] 
s 11.320617877 _3_ MAC  --- 0 RTS 44 [148e 2 3 0] 
r 11.320969910 _2_ MAC  --- 0 RTS 44 [148e 2 3 0] 
s 11.320979910 _2_ MAC  --- 0 CTS 38 [1354 3 0 0] 
r 11.321283943 _3_ MAC  --- 0 CTS 38 [1354 3 0 0] 
s 11.321293943 _3_ MAC  --- 21 pareto 578 [13a 2 3 800] ------- [3:0 2:1 32 2] 
s 11.321638016 _2_ AGT  --- 34 pareto 500 [0 0 0 0] ------- [2:0 2:1 32 0] 
r 11.321638016 _2_ AGT  --- 34 pareto 500 [0 0 0 0] ------- [2:0 2:1 32 0] 
s 11.324401477 _3_ AGT  --- 35 pareto 500 [0 0 0 0] ------- [3:0 2:1 32 0] 
r 11.324401477 _3_ RTR  --- 35 pareto 500 [0 0 0 0] ------- [3:0 2:1 32 0] 
s 11.324401477 _3_ RTR  --- 35 pareto 520 [0 0 0 0] ------- [3:0 2:1 32 2] 
s 11.325638016 _2_ AGT  --- 36 pareto 500 [0 0 0 0] ------- [2:0 2:1 32 0] 
r 11.325638016 _2_ AGT  --- 36 pareto 500 [0 0 0 0] ------- [2:0 2:1 32 0] 
r 11.325917977 _2_ MAC  --- 21 pareto 520 [13a 2 3 800] ------- [3:0 2:1 32 2] 
s 11.325927977 _2_ MAC  --- 0 ACK 38 [0 3 0 0] 
r 11.325942977 _2_ AGT  --- 21 pareto 520 [13a 2 3 800] ------- [3:0 2:1 32 2] 
r 11.326232010 _3_ MAC  --- 0 ACK 38 [0 3 0 0] 
s 11.326562010 _3_ MAC  --- 0 RTS 44 [148e 2 3 0] 
r 11.326914043 _2_ MAC  --- 0 RTS 44 [148e 2 3 0] 
s 11.326924043 _2_ MAC  --- 0 CTS 38 [1354 3 0 0] 
r 11.327228077 _3_ MAC  --- 0 CTS 38 [1354 3 0 0] 
s 11.327238077 _3_ MAC  --- 22 pareto 578 [13a 2 3 800] ------- [3:0 2:1 32 2] 
s 11.328401477 _3_ AGT  --- 37 pareto 500 [0 0 0 0] ------- [3:0 2:1 32 0] 
r 11.328401477 _3_ RTR  --- 37 pareto 500 [0 0 0 0] ------- [3:0 2:1 32 0] 
s 11.328401477 _3_ RTR  --- 37 pareto 520 [0 0 0 0] ------- [3:0 2:1 32 2] 
s 11.329638016 _2_ AGT  --- 38 pareto 500 [0 0 0 0] ------- [2:0 2:1 32 0] 
r 11.329638016 _2_ AGT  --- 38 pareto 500 [0 0 0 0] ------- [2:0 2:1 32 0] 
r 11.331862110 _2_ MAC  --- 22 pareto 520 [13a 2 3 800] ------- [3:0 2:1 32 2] 
s 11.331872110 _2_ MAC  --- 0 ACK 38 [0 3 0 0] 
r 11.331887110 _2_ AGT  --- 22 pareto 520 [13a 2 3 800] ------- [3:0 2:1 32 2] 
r 11.332176143 _3_ MAC  --- 0 ACK 38 [0 3 0 0] 
s 11.332401477 _3_ AGT  --- 39 pareto 500 [0 0 0 0] ------- [3:0 2:1 32 0] 
r 11.332401477 _3_ RTR  --- 39 pareto 500 [0 0 0 0] ------- [3:0 2:1 32 0] 
s 11.332401477 _3_ RTR  --- 39 pareto 520 [0 0 0 0] ------- [3:0 2:1 32 2] 
s 11.332706143 _3_ MAC  --- 0 RTS 44 [148e 2 3 0] 
r 11.333058177 _2_ MAC  --- 0 RTS 44 [148e 2 3 0] 
s 11.333068177 _2_ MAC  --- 0 CTS 38 [1354 3 0 0] 
r 11.333372210 _3_ MAC  --- 0 CTS 38 [1354 3 0 0] 
s 11.333382210 _3_ MAC  --- 23 pareto 578 [13a 2 3 800] ------- [3:0 2:1 32 2] 
s 11.333638016 _2_ AGT  --- 40 pareto 500 [0 0 0 0] ------- [2:0 2:1 32 0] 
r 11.333638016 _2_ AGT  --- 40 pareto 500 [0 0 0 0] ------- [2:0 2:1 32 0] 
s 11.335037313 _1_ AGT  --- 41 pareto 500 [0 0 0 0] ------- [1:0 2:1 32 0] 
r 11.335037313 _1_ RTR  --- 41 pareto 500 [0 0 0 0] ------- [1:0 2:1 32 0] 
s 11.335037313 _1_ RTR  --- 41 pareto 520 [0 0 0 0] ------- [1:0 2:1 32 2] 
s 11.336401477 _3_ AGT  --- 42 pareto 500 [0 0 0 0] ------- [3:0 2:1 32 0] 
r 11.336401477 _3_ RTR  --- 42 pareto 500 [0 0 0 0] ------- [3:0 2:1 32 0] 
s 11.336401477 _3_ RTR  --- 42 pareto 520 [0 0 0 0] ------- [3:0 2:1 32 2] 
s 11.337638016 _2_ AGT  --- 43 pareto 500 [0 0 0 0] ------- [2:0 2:1 32 0] 
r 11.337638016 _2_ AGT  --- 43 pareto 500 [0 0 0 0] ------- [2:0 2:1 32 0] 
r 11.338006243 _2_ MAC  --- 23 pareto 520 [13a 2 3 800] ------- [3:0 2:1 32 2] 
s 11.338016243 _2_ MAC  --- 0 ACK 38 [0 3 0 0] 
r 11.338031243 _2_ AGT  --- 23 pareto 520 [13a 2 3 800] ------- [3:0 2:1 32 2] 
r 11.338320277 _3_ MAC  --- 0 ACK 38 [0 3 0 0] 
s 11.338370290 _1_ MAC  --- 0 ARP 86 [0 ffffffff 1 806] ------- [REQUEST 1/1 0/2]
s 11.339037313 _1_ AGT  --- 44 pareto 500 [0 0 0 0] ------- [1:0 2:1 32 0] 
r 11.339037313 _1_ RTR  --- 44 pareto 500 [0 0 0 0] ------- [1:0 2:1 32 0] 
s 11.339037313 _1_ RTR  --- 44 pareto 520 [0 0 0 0] ------- [1:0 2:1 32 2] 
D 11.339037313 _1_ IFQ  ARP 41 pareto 520 [0 0 1 800] ------- [1:0 2:1 32 2] 
r 11.339058324 _0_ MAC  --- 0 ARP 28 [0 ffffffff 1 806] ------- [REQUEST 1/1 0/2]
r 11.339058324 _3_ MAC  --- 0 ARP 28 [0 ffffffff 1 806] ------- [REQUEST 1/1 0/2]
r 11.339058338 _2_ MAC  --- 0 ARP 28 [0 ffffffff 1 806] ------- [REQUEST 1/1 0/2]
s 11.339273338 _2_ MAC  --- 0 RTS 44 [52e 1 2 0] 
r 11.339625385 _1_ MAC  --- 0 RTS 44 [52e 1 2 0] 
s 11.339635385 _1_ MAC  --- 0 CTS 38 [3f4 2 0 0] 
r 11.339939432 _2_ MAC  --- 0 CTS 38 [3f4 2 0 0] 
s 11.339949432 _2_ MAC  --- 0 ARP 86 [13a 1 2 806] ------- [REPLY 2/2 1/1]
s 11.340401477 _3_ AGT  --- 45 pareto 500 [0 0 0 0] ------- [3:0 2:1 32 0] 
r 11.340401477 _3_ RTR  --- 45 pareto 500 [0 0 0 0] ------- [3:0 2:1 32 0] 
s 11.340401477 _3_ RTR  --- 45 pareto 520 [0 0 0 0] ------- [3:0 2:1 32 2] 
r 11.340637479 _1_ MAC  --- 0 ARP 28 [13a 1 2 806] ------- [REPLY 2/2 1/1]
s 11.340647479 _1_ MAC  --- 0 ACK 38 [0 2 0 0] 
r 11.340951526 _2_ MAC  --- 0 ACK 38 [0 2 0 0] 
s 11.341061512 _3_ MAC  --- 0 RTS 44 [148e 2 3 0] 
r 11.341413546 _2_ MAC  --- 0 RTS 44 [148e 2 3 0] 
s 11.341423546 _2_ MAC  --- 0 CTS 38 [1354 3 0 0] 
s 11.341638016 _2_ AGT  --- 46 pareto 500 [0 0 0 0] ------- [2:0 2:1 32 0] 
r 11.341638016 _2_ AGT  --- 46 pareto 500 [0 0 0 0] ------- [2:0 2:1 32 0] 
r 11.341727579 _3_ MAC  --- 0 CTS 38 [1354 3 0 0] 
s 11.341737579 _3_ MAC  --- 24 pareto 578 [13a 2 3 800] ------- [3:0 2:1 32 2] 
s 11.343037313 _1_ AGT  --- 47 pareto 500 [0 0 0 0] ------- [1:0 2:1 32 0] 
r 11.343037313 _1_ RTR  --- 47 pareto 500 [0 0 0 0] ------- [1:0 2:1 32 0] 
s 11.343037313 _1_ RTR  --- 47 pareto 520 [0 0 0 0] ------- [1:0 2:1 32 2] 
s 11.344401477 _3_ AGT  --- 48 pareto 500 [0 0 0 0] ------- [3:0 2:1 32 0] 
r 11.344401477 _3_ RTR  --- 48 pareto 500 [0 0 0 0] ------- [3:0 2:1 32 0] 
s 11.344401477 _3_ RTR  --- 48 pareto 520 [0 0 0 0] ------- [3:0 2:1 32 2] 
s 11.345638016 _2_ AGT  --- 49 pareto 500 [0 0 0 0] ------- [2:0 2:1 32 0] 
r 11.345638016 _2_ AGT  --- 49 pareto 500 [0 0 0 0] ------- [2:0 2:1 32 0] 
r 11.346361612 _2_ MAC  --- 24 pareto 520 [13a 2 3 800] ------- [3:0 2:1 32 2] 
s 11.346371612 _2_ MAC  --- 0 ACK 38 [0 3 0 0] 
r 11.346386612 _2_ AGT  --- 24 pareto 520 [13a 2 3 800] ------- [3:0 2:1 32 2] 
r 11.346675646 _3_ MAC  --- 0 ACK 38 [0 3 0 0] 
s 11.346805646 _3_ MAC  --- 0 RTS 44 [148e 2 3 0] 
s 11.347037313 _1_ AGT  --- 50 pareto 500 [0 0 0 0] ------- [1:0 2:1 32 0] 
r 11.347037313 _1_ RTR  --- 50 pareto 500 [0 0 0 0] ------- [1:0 2:1 32 0] 
s 11.347037313 _1_ RTR  --- 50 pareto 520 [0 0 0 0] ------- [1:0 2:1 32 2] 
r 11.347157679 _2_ MAC  --- 0 RTS 44 [148e 2 3 0] 
s 11.347167679 _2_ MAC  --- 0 CTS 38 [1354 3 0 0] 
r 11.347471712 _3_ MAC  --- 0 CTS 38 [1354 3 0 0] 
s 11.347481712 _3_ MAC  --- 25 pareto 578 [13a 2 3 800] ------- [3:0 2:1 32 2] 
s 11.348401477 _3_ AGT  --- 51 pareto 500 [0 0 0 0] ------- [3:0 2:1 32 0] 
r 11.348401477 _3_ RTR  --- 51 pareto 500 [0 0 0 0] ------- [3:0 2:1 32 0] 
s 11.348401477 _3_ RTR  --- 51 pareto 520 [0 0 0 0] ------- [3:0 2:1 32 2] 
s 11.349638016 _2_ AGT  --- 52 pareto 500 [0 0 0 0] ------- [2:0 2:1 32 0] 
r 11.349638016 _2_ AGT  --- 52 pareto 500 [0 0 0 0] ------- [2:0 2:1 32 0] 
s 11.351037313 _1_ AGT  --- 53 pareto 500 [0 0 0 0] ------- [1:0 2:1 32 0] 
r 11.351037313 _1_ RTR  --- 53 pareto 500 [0 0 0 0] ------- [1:0 2:1 32 0] 
s 11.351037313 _1_ RTR  --- 53 pareto 520 [0 0 0 0] ------- [1:0 2:1 32 2] 
r 11.352105746 _2_ MAC  --- 25 pareto 520 [13a 2 3 800] ------- [3:0 2:1 32 2] 
s 11.352115746 _2_ MAC  --- 0 ACK 38 [0 3 0 0] 
r 11.352130746 _2_ AGT  --- 25 pareto 520 [13a 2 3 800] ------- [3:0 2:1 32 2] 
s 11.352401477 _3_ AGT  --- 54 pareto 500 [0 0 0 0] ------- [3:0 2:1 32 0] 
r 11.352401477 _3_ RTR  --- 54 pareto 500 [0 0 0 0] ------- [3:0 2:1 32 0] 
s 11.352401477 _3_ RTR  --- 54 pareto 520 [0 0 0 0] ------- [3:0 2:1 32 2] 
r 11.352419779 _3_ MAC  --- 0 ACK 38 [0 3 0 0] 
s 11.352489793 _1_ MAC  --- 0 ARP 86 [0 ffffffff 1 806] ------- [REQUEST 1/1 0/2]
r 11.353177826 _0_ MAC  --- 0 ARP 28 [0 ffffffff 1 806] ------- [REQUEST 1/1 0/2]
r 11.353177826 _3_ MAC  --- 0 ARP 28 [0 ffffffff 1 806] ------- [REQUEST 1/1 0/2]
r 11.353177840 _2_ MAC  --- 0 ARP 28 [0 ffffffff 1 806] ------- [REQUEST 1/1 0/2]
s 11.353227793 _1_ MAC  --- 0 RTS 44 [148e 2 1 0] 
r 11.353579840 _2_ MAC  --- 0 RTS 44 [148e 2 1 0] 
s 11.353589840 _2_ MAC  --- 0 CTS 38 [1354 1 0 0] 
s 11.353638016 _2_ AGT  --- 55 pareto 500 [0 0 0 0] ------- [2:0 2:1 32 0] 
r 11.353638016 _2_ AGT  --- 55 pareto 500 [0 0 0 0] ------- [2:0 2:1 32 0] 
r 11.353893887 _1_ MAC  --- 0 CTS 38 [1354 1 0 0] 
s 11.353903887 _1_ MAC  --- 44 pareto 578 [13a 2 1 800] ------- [1:0 2:1 32 2] 
s 11.355037313 _1_ AGT  --- 56 pareto 500 [0 0 0 0] ------- [1:0 2:1 32 0] 
r 11.355037313 _1_ RTR  --- 56 pareto 500 [0 0 0 0] ------- [1:0 2:1 32 0] 
s 11.355037313 _1_ RTR  --- 56 pareto 520 [0 0 0 0] ------- [1:0 2:1 32 2] 
s 11.356401477 _3_ AGT  --- 57 pareto 500 [0 0 0 0] ------- [3:0 2:1 32 0] 
r 11.356401477 _3_ RTR  --- 57 pareto 500 [0 0 0 0] ------- [3:0 2:1 32 0] 
s 11.356401477 _3_ RTR  --- 57 pareto 520 [0 0 0 0] ------- [3:0 2:1 32 2] 
s 11.357638016 _2_ AGT  --- 58 pareto 500 [0 0 0 0] ------- [2:0 2:1 32 0] 
r 11.357638016 _2_ AGT  --- 58 pareto 500 [0 0 0 0] ------- [2:0 2:1 32 0] 
r 11.358527934 _2_ MAC  --- 44 pareto 520 [13a 2 1 800] ------- [1:0 2:1 32 2] 
s 11.358537934 _2_ MAC  --- 0 ACK 38 [0 1 0 0] 
r 11.358552934 _2_ AGT  --- 44 pareto 520 [13a 2 1 800] ------- [1:0 2:1 32 2] 
r 11.358841981 _1_ MAC  --- 0 ACK 38 [0 1 0 0] 
s 11.358951934 _2_ MAC  --- 0 RTS 44 [52e 1 2 0] 
s 11.359037313 _1_ AGT  --- 59 pareto 500 [0 0 0 0] ------- [1:0 2:1 32 0] 
r 11.359037313 _1_ RTR  --- 59 pareto 500 [0 0 0 0] ------- [1:0 2:1 32 0] 
s 11.359037313 _1_ RTR  --- 59 pareto 520 [0 0 0 0] ------- [1:0 2:1 32 2] 
r 11.359303981 _1_ MAC  --- 0 RTS 44 [52e 1 2 0] 
s 11.359313981 _1_ MAC  --- 0 CTS 38 [3f4 2 0 0] 
r 11.359618028 _2_ MAC  --- 0 CTS 38 [3f4 2 0 0] 
s 11.359628028 _2_ MAC  --- 0 ARP 86 [13a 1 2 806] ------- [REPLY 2/2 1/1]
r 11.360316076 _1_ MAC  --- 0 ARP 28 [13a 1 2 806] ------- [REPLY 2/2 1/1]
s 11.360326076 _1_ MAC  --- 0 ACK 38 [0 2 0 0] 
s 11.360401477 _3_ AGT  --- 60 pareto 500 [0 0 0 0] ------- [3:0 2:1 32 0] 
r 11.360401477 _3_ RTR  --- 60 pareto 500 [0 0 0 0] ------- [3:0 2:1 32 0] 
s 11.360401477 _3_ RTR  --- 60 pareto 520 [0 0 0 0] ------- [3:0 2:1 32 2] 
r 11.360630123 _2_ MAC  --- 0 ACK 38 [0 2 0 0] 
s 11.360880076 _1_ MAC  --- 0 RTS 44 [148e 2 1 0] 
r 11.361232123 _2_ MAC  --- 0 RTS 44 [148e 2 1 0] 
s 11.361242123 _2_ MAC  --- 0 CTS 38 [1354 1 0 0] 
r 11.361546170 _1_ MAC  --- 0 CTS 38 [1354 1 0 0] 
s 11.361556170 _1_ MAC  --- 47 pareto 578 [13a 2 1 800] ------- [1:0 2:1 32 2] 
s 11.361638016 _2_ AGT  --- 61 pareto 500 [0 0 0 0] ------- [2:0 2:1 32 0] 